 Gaussian 16, Revision C.01,
 Gaussian 16:  ES64L-G16RevC.01  3-Jul-2019

 ---------------------------------------------------------------
 # wb97xd def2TZVPP SCRF=(solvent=dichloromethane) opt=qst2 freq
 ---------------------------------------------------------------

 -----------------------
 ts_xyz/YRhMeH_sigma.xyz
 -----------------------
 Symbolic Z-matrix:
 Charge =  0 Multiplicity = 1

 -----------------
 ts_xyz/YRhMeH.xyz
 -----------------
 Symbolic Z-matrix:
 Charge =  0 Multiplicity = 1

 SCF Done:  E(RwB97XD) =  -729.314571858     A.U. after   19 cycles
 SCF Done:  E(RwB97XD) =  -729.311332471     A.U. after   14 cycles
 SCF Done:  E(RwB97XD) =  -729.314742098     A.U. after   14 cycles
 SCF Done:  E(RwB97XD) =  -729.319516994     A.U. after   14 cycles
 SCF Done:  E(RwB97XD) =  -729.326779349     A.U. after   15 cycles
 SCF Done:  E(RwB97XD) =  -729.331567869     A.U. after   14 cycles
 SCF Done:  E(RwB97XD) =  -729.337865682     A.U. after   14 cycles
 SCF Done:  E(RwB97XD) =  -729.340138945     A.U. after   13 cycles
 SCF Done:  E(RwB97XD) =  -729.341781556     A.U. after   13 cycles
 SCF Done:  E(RwB97XD) =  -729.342650093     A.U. after   13 cycles
 SCF Done:  E(RwB97XD) =  -729.343301472     A.U. after    9 cycles
 SCF Done:  E(RwB97XD) =  -729.343301524     A.U. after   10 cycles
 SCF Done:  E(RwB97XD) =  -729.343299904     A.U. after    9 cycles
 SCF Done:  E(RwB97XD) =  -729.343296865     A.U. after    9 cycles
 SCF Done:  E(RwB97XD) =  -729.343295666     A.U. after    7 cycles
 SCF Done:  E(RwB97XD) =  -729.343294136     A.U. after    9 cycles
 SCF Done:  E(RwB97XD) =  -729.343295175     A.U. after    9 cycles
 SCF Done:  E(RwB97XD) =  -729.343297351     A.U. after    9 cycles
 SCF Done:  E(RwB97XD) =  -729.343299217     A.U. after    8 cycles
 Optimization completed.
    -- Stationary point found.
 Normal termination of Gaussian 16 at Fri Mar  8 14:39:42 2024.

 ----------------------------------------------------------------------
 #N Geom=AllCheck Guess=TCheck SCRF=Check GenChk RwB97XD/def2TZVPP Freq
 ----------------------------------------------------------------------

 Structure from the checkpoint file:  "QST2_YRhMeH_sigma_YRhMeH.chk"
 -----------------------
 ts_xyz/YRhMeH_sigma.xyz
 -----------------------
 Charge =  0 Multiplicity = 1

                         Standard orientation:
 ---------------------------------------------------------------------
 Center     Atomic      Atomic             Coordinates (Angstroms)
 Number     Number       Type             X           Y           Z
 ---------------------------------------------------------------------
      1          6           0       -1.738555   -1.269666   -0.122074
      2          6           0       -1.823991    1.144212   -0.126359
      3          6           0       -3.113613   -1.325420    0.070599
      4          6           0       -3.199535    1.103697    0.065616
      5          6           0       -3.831544   -0.134560    0.172075
      6          1           0       -3.635183   -2.273514    0.139686
      7          1           0       -3.786631    2.012964    0.130767
      8          6           0       -0.824335   -2.438955   -0.374084
      9          1           0       -0.825088   -2.648605   -1.444965
     10          1           0       -1.133844   -3.357789    0.135213
     11          6           0       -0.993510    2.373812   -0.380372
     12          1           0       -1.003900    2.578183   -1.452228
     13          1           0       -1.368959    3.270824    0.123512
     14          7           0        0.591379   -2.111206    0.000015
     15          7           0        0.439813    2.147211    0.001216
     16          6           0        2.989343    0.104500    0.315215
     17          1           0        2.868246    0.099568    1.406955
     18          1           0        3.610107   -0.754687    0.049024
     19          1           0        3.551718    1.003455    0.050715
     20          6           0        1.507326   -2.947826   -0.785102
     21          1           0        2.529520   -2.746503   -0.474423
     22          1           0        1.291483   -4.011940   -0.636136
     23          1           0        1.405955   -2.703357   -1.839608
     24          6           0        0.782805   -2.410872    1.430579
     25          1           0        0.623394   -3.477755    1.623497
     26          1           0        1.793427   -2.141061    1.727705
     27          1           0        0.073851   -1.835567    2.022901
     28          6           0        1.298596    3.047170   -0.778371
     29          1           0        1.006503    4.093144   -0.631247
     30          1           0        2.330513    2.919216   -0.461095
     31          1           0        1.221862    2.795865   -1.833332
     32          6           0        0.601701    2.457476    1.433103
     33          1           0        1.627241    2.259456    1.735645
     34          1           0        0.366302    3.510221    1.626179
     35          1           0       -0.068015    1.832627    2.020779
     36          1           0        2.032978    0.079352   -1.185133
     37          1           0       -4.902081   -0.172080    0.329745
     38          6           0       -1.100083   -0.038769   -0.201490
     39         45           0        0.885436    0.031715   -0.166417
 ---------------------------------------------------------------------

 SCF Done:  E(RwB97XD) =  -729.343299217     A.U. after    1 cycles

 The electronic state is 1-A.
 Alpha  occ. eigenvalues --  -14.48285 -14.48277 -10.31458 -10.31458 -10.30697
 Alpha  occ. eigenvalues --  -10.30697 -10.30545 -10.30545 -10.27834 -10.27830
 Alpha  occ. eigenvalues --  -10.27766 -10.27713 -10.27684 -10.24791 -10.24047
 Alpha  occ. eigenvalues --   -3.29124  -2.05177  -2.04319  -2.02784  -1.05016
 Alpha  occ. eigenvalues --   -1.04742  -0.94885  -0.87375  -0.85040  -0.81500
 Alpha  occ. eigenvalues --   -0.81493  -0.78918  -0.78396  -0.74630  -0.71573
 Alpha  occ. eigenvalues --   -0.70764  -0.66466  -0.66320  -0.59925  -0.58212
 Alpha  occ. eigenvalues --   -0.57520  -0.57261  -0.56693  -0.55456  -0.55252
 Alpha  occ. eigenvalues --   -0.52828  -0.50315  -0.50049  -0.49664  -0.48721
 Alpha  occ. eigenvalues --   -0.48155  -0.47528  -0.46599  -0.46533  -0.46152
 Alpha  occ. eigenvalues --   -0.45828  -0.45599  -0.44458  -0.44336  -0.42716
 Alpha  occ. eigenvalues --   -0.41916  -0.40418  -0.40053  -0.36059  -0.34957
 Alpha  occ. eigenvalues --   -0.32368  -0.31385  -0.28497  -0.27805  -0.27391
 Alpha  occ. eigenvalues --   -0.25563
 Alpha virt. eigenvalues --    0.03419   0.06333   0.07985   0.09003   0.09650
 Alpha virt. eigenvalues --    0.10451   0.10879   0.12861   0.14612   0.14952
 Alpha virt. eigenvalues --    0.15377   0.15932   0.16142   0.16828   0.17186

 Mulliken charges:
               1
     1  C   -0.024990
     2  C   -0.025341
     3  C   -0.251646
     4  C   -0.251283
     5  C   -0.094112
     6  H    0.115310
     7  H    0.115470
     8  C   -0.047222
     9  H    0.103623
    10  H    0.100283
    11  C   -0.046626
    12  H    0.103605
    13  H    0.100270
    14  N   -0.037004
    15  N   -0.036144
    16  C   -0.608705
    17  H    0.105117
    18  H    0.098666
    19  H    0.098678
    20  C   -0.180303
    21  H    0.104451
    22  H    0.102409
    23  H    0.105970
    24  C   -0.171401
    25  H    0.096171
    26  H    0.110560
    27  H    0.117685
    28  C   -0.180298
    29  H    0.102294
    30  H    0.104606
    31  H    0.105942
    32  C   -0.171065
    33  H    0.110500
    34  H    0.096122
    35  H    0.117525
    36  H   -0.053429
    37  H    0.128458
    38  C   -0.017975
    39  Rh  -0.146173
 Sum of Mulliken charges =  -0.00000

 Dipole moment (field-independent basis, Debye):
    X=              0.0149    Y=             -0.0007    Z=              1.4798  Tot=              1.4798
 Quadrupole moment (field-independent basis, Debye-Ang):
   XX=           -122.1373   YY=            -90.3808   ZZ=           -115.5392
   XY=             -1.1186   XZ=             -0.1797   YZ=             -0.0089

  Exact polarizability:     348.823       1.887     293.081       0.493      -0.054     209.288
 Approx polarizability:     271.556       1.091     240.714      -3.615      -0.232     196.261

 ******    1 imaginary frequencies (negative Signs) ******

                      1                      2                      3
                      A                      A                      A
 Frequencies --   -710.2918                44.5054                63.8326
 Red. masses --      1.0656                 3.1538                 2.8760
 Frc consts  --      0.3167                 0.0037                 0.0069
 IR Inten    --    712.3489                 2.4015                 0.2191

                      4                      5                      6
                      A                      A                      A
 Frequencies --     72.9881               125.5990               158.7127
 Red. masses --      3.7374                 2.9145                 1.2652
 Frc consts  --      0.0117                 0.0271                 0.0188
 IR Inten    --      4.0094                 1.2969                 0.0702

                      7                      8                      9
                      A                      A                      A
 Frequencies --    172.6566               179.3196               193.4832
 Red. masses --      2.2816                 3.6899                 2.0523
 Frc consts  --      0.0401                 0.0699                 0.0453
 IR Inten    --      1.0410                 2.9897                 0.0920

                     10                     11                     12
                      A                      A                      A
 Frequencies --    210.9172               228.7888               229.0886
 Red. masses --      3.6868                 4.0173                 3.8096
 Frc consts  --      0.0966                 0.1239                 0.1178
 IR Inten    --      2.6980                 6.6858                 1.4700

                     13                     14                     15
                      A                      A                      A
 Frequencies --    242.7361               270.0143               275.4012
 Red. masses --      3.0458                 3.0867                 3.0011
 Frc consts  --      0.1057                 0.1326                 0.1341
 IR Inten    --      0.9941                 2.3415                 4.7365

                     16                     17                     18
                      A                      A                      A
 Frequencies --    288.4622               291.6393               310.9902
 Red. masses --      1.1553                 1.1693                 1.2891
 Frc consts  --      0.0566                 0.0586                 0.0735
 IR Inten    --      1.3407                 1.2831                 0.5845

                     19                     20                     21
                      A                      A                      A
 Frequencies --    311.9649               345.1724               383.2652
 Red. masses --      1.1332                 2.2178                 3.7567
 Frc consts  --      0.0650                 0.1557                 0.3251
 IR Inten    --      2.7261                 1.3500                 5.8866

                     22                     23                     24
                      A                      A                      A
 Frequencies --    406.1324               425.6813               472.5223
 Red. masses --      2.3676                 2.2190                 2.3756
 Frc consts  --      0.2301                 0.2369                 0.3125
 IR Inten    --      0.5907                 1.1788                 5.1352

                     25                     26                     27
                      A                      A                      A
 Frequencies --    477.6220               491.2205               491.7415
 Red. masses --      3.8324                 2.7802                 3.0321
 Frc consts  --      0.5151                 0.3953                 0.4320
 IR Inten    --     35.9427                13.1452                15.3283

                     28                     29                     30
                      A                      A                      A
 Frequencies --    506.1355               524.9911               532.0171
 Red. masses --      3.1446                 3.5168                 2.8934
 Frc consts  --      0.4746                 0.5711                 0.4825
 IR Inten    --     25.2672                 8.4613                16.6980

                     31                     32                     33
                      A                      A                      A
 Frequencies --    560.4936               646.4853               655.1759
 Red. masses --      1.1998                 4.9416                 4.5088
 Frc consts  --      0.2221                 1.2168                 1.1403
 IR Inten    --      1.3187                 1.6383                 0.8219

                     34                     35                     36
                      A                      A                      A
 Frequencies --    711.1425               748.9239               780.5514
 Red. masses --      1.1992                 2.7457                 1.7896
 Frc consts  --      0.3573                 0.9074                 0.6424
 IR Inten    --     18.6229                10.6172                40.0024

                     37                     38                     39
                      A                      A                      A
 Frequencies --    804.0496               816.5227               873.4138
 Red. masses --      2.6356                 1.1770                 3.4713
 Frc consts  --      1.0039                 0.4623                 1.5602
 IR Inten    --     13.7323                 7.3497                76.7090

                     40                     41                     42
                      A                      A                      A
 Frequencies --    885.8752               930.7758               983.5460
 Red. masses --      3.7933                 1.4384                 1.8324
 Frc consts  --      1.7539                 0.7342                 1.0444
 IR Inten    --     18.7167                15.0292                 8.3797

                     43                     44                     45
                      A                      A                      A
 Frequencies --    986.1485              1000.1519              1004.6022
 Red. masses --      2.2527                 2.7999                 1.5744
 Frc consts  --      1.2907                 1.6502                 0.9362
 IR Inten    --      9.0724                 9.5013                18.1347

                     46                     47                     48
                      A                      A                      A
 Frequencies --   1017.6843              1036.8724              1055.8408
 Red. masses --      2.1544                 2.6814                 1.6028
 Frc consts  --      1.3147                 1.6985                 1.0527
 IR Inten    --     31.5433                19.4630                 7.7865

                     49                     50                     51
                      A                      A                      A
 Frequencies --   1056.2975              1066.2171              1120.4071
 Red. masses --      1.6031                 3.7481                 2.2135
 Frc consts  --      1.0539                 2.5105                 1.6371
 IR Inten    --     10.3391                 3.4588                 3.2203

                     52                     53                     54
                      A                      A                      A
 Frequencies --   1131.3059              1133.6210              1183.2871
 Red. masses --      1.2617                 1.2619                 1.4818
 Frc consts  --      0.9514                 0.9554                 1.2224
 IR Inten    --      1.3366                 2.7252                 0.7270

                     55                     56                     57
                      A                      A                      A
 Frequencies --   1183.9160              1184.6823              1214.1761
 Red. masses --      1.2754                 1.4849                 1.2565
 Frc consts  --      1.0533                 1.2279                 1.0914
 IR Inten    --      0.2202                 5.0643                 7.6085

                     58                     59                     60
                      A                      A                      A
 Frequencies --   1214.8584              1218.7469              1246.0867
 Red. masses --      1.8080                 1.6772                 1.7088
 Frc consts  --      1.5721                 1.4678                 1.5633
 IR Inten    --      2.3198                 4.0484                 4.8252

                     61                     62                     63
                      A                      A                      A
 Frequencies --   1258.8494              1279.5266              1283.2149
 Red. masses --      2.2218                 2.0573                 2.1055
 Frc consts  --      2.0745                 1.9845                 2.0427
 IR Inten    --      0.6034                 2.5712                 2.0756

                     64                     65                     66
                      A                      A                      A
 Frequencies --   1316.2247              1323.7024              1339.9168
 Red. masses --      1.8628                 1.6417                 2.6429
 Frc consts  --      1.9014                 1.6948                 2.7957
 IR Inten    --      0.6930                13.6625                 0.0046

                     67                     68                     69
                      A                      A                      A
 Frequencies --   1389.5219              1395.3399              1445.1587
 Red. masses --      1.8146                 1.4730                 1.1447
 Frc consts  --      2.0643                 1.6897                 1.4085
 IR Inten    --      2.3902                26.1519                 0.6221

                     70                     71                     72
                      A                      A                      A
 Frequencies --   1446.7580              1456.2324              1461.5853
 Red. masses --      1.1576                 1.0737                 1.8352
 Frc consts  --      1.4275                 1.3415                 2.3099
 IR Inten    --      4.2895                 2.0722                 8.9910

                     73                     74                     75
                      A                      A                      A
 Frequencies --   1470.8411              1473.8872              1476.5349
 Red. masses --      1.1680                 1.3414                 1.1227
 Frc consts  --      1.4887                 1.7168                 1.4421
 IR Inten    --      1.0902                 6.8862                 5.4392

                     76                     77                     78
                      A                      A                      A
 Frequencies --   1485.5000              1487.8449              1488.1217
 Red. masses --      1.0761                 1.0476                 1.0549
 Frc consts  --      1.3992                 1.3663                 1.3764
 IR Inten    --      2.4817                 1.1005                 2.0154

                     79                     80                     81
                      A                      A                      A
 Frequencies --   1490.5316              1500.4496              1501.4282
 Red. masses --      1.0985                 1.0772                 1.0651
 Frc consts  --      1.4380                 1.4288                 1.4147
 IR Inten    --      0.1034                 1.5297                20.3763

                     82                     83                     84
                      A                      A                      A
 Frequencies --   1504.6004              1506.3185              1508.1345
 Red. masses --      1.1004                 1.0567                 1.0825
 Frc consts  --      1.4677                 1.4127                 1.4507
 IR Inten    --     26.4381                25.7836                28.8037

                     85                     86                     87
                      A                      A                      A
 Frequencies --   1509.6394              1512.6677              1645.1353
 Red. masses --      1.0533                 2.1228                 7.4566
 Frc consts  --      1.4143                 2.8619                11.8903
 IR Inten    --     23.7230                 0.1102                 6.9487

                     88                     89                     90
                      A                      A                      A
 Frequencies --   1646.1901              2217.9276              2984.3401
 Red. masses --      5.9634                 1.0179                 1.0403
 Frc consts  --      9.5214                 2.9501                 5.4588
 IR Inten    --      7.1417                63.2807                92.5474

                     91                     92                     93
                      A                      A                      A
 Frequencies --   3017.6038              3018.8054              3019.6755
 Red. masses --      1.0480                 1.0479                 1.0488
 Frc consts  --      5.6225                 5.6266                 5.6344
 IR Inten    --     53.4729               113.6152               185.4131

                     94                     95                     96
                      A                      A                      A
 Frequencies --   3020.6736              3033.8030              3035.9166
 Red. masses --      1.0493                 1.0647                 1.0642
 Frc consts  --      5.6408                 5.7736                 5.7790
 IR Inten    --     13.2008               149.9005                67.0064

                     97                     98                     99
                      A                      A                      A
 Frequencies --   3069.1153              3092.8537              3095.6676
 Red. masses --      1.0906                 1.1019                 1.0987
 Frc consts  --      6.0525                 6.2100                 6.2033
 IR Inten    --    124.4688                82.2130                12.0206

                    100                    101                    102
                      A                      A                      A
 Frequencies --   3096.1832              3122.6496              3122.7212
 Red. masses --      1.0992                 1.0862                 1.0865
 Frc consts  --      6.2084                 6.2404                 6.2420
 IR Inten    --     20.8026                13.1086                27.8133

                    103                    104                    105
                      A                      A                      A
 Frequencies --   3129.1104              3129.4734              3165.2947
 Red. masses --      1.0855                 1.0854                 1.1055
 Frc consts  --      6.2624                 6.2630                 6.5260
 IR Inten    --     16.3649                21.7633                16.2568

                    106                    107                    108
                      A                      A                      A
 Frequencies --   3165.4289              3171.2985              3171.6824
 Red. masses --      1.1055                 1.1054                 1.1054
 Frc consts  --      6.5265                 6.5502                 6.5519
 IR Inten    --      9.7205                17.1865                22.8581

                    109                    110                    111
                      A                      A                      A
 Frequencies --   3172.4759              3178.1777              3203.8196
 Red. masses --      1.0868                 1.0911                 1.0956
 Frc consts  --      6.4448                 6.4932                 6.6256
 IR Inten    --      8.9345                43.9869                54.7697

 - Thermochemistry -
 -------------------
 Temperature   298.150 Kelvin.  Pressure   1.00000 Atm.
 Atom     1 has atomic number  6 and mass  12.00000

 Molecular mass:   310.09092 amu.
 Principal axes and moments of inertia in atomic units:
                           1         2         3
     Eigenvalues --  3412.664023601.783536242.85094
           X            0.99957  -0.02926   0.00320
           Y            0.02926   0.99957   0.00012
           Z           -0.00321  -0.00003   0.99999
 This molecule is an asymmetric top.
 Rotational symmetry number  1.
 Warning -- assumption of classical behavior for rotation
           may cause significant error
 Rotational temperatures (Kelvin)      0.02538     0.02405     0.01387
 Rotational constants (GHZ):           0.52884     0.50107     0.28909
    1 imaginary frequencies ignored.
 Zero-point vibrational energy     892521.9 (Joules/Mol)
                                  213.31786 (Kcal/Mol)
 Warning -- explicit consideration of  30 degrees of freedom as
           vibrations may cause significant error
 Vibrational temperatures:     64.03    91.84   105.01   180.71   228.35
          (Kelvin)            248.41   258.00   278.38   303.46   329.18
                              329.61   349.24   388.49   396.24   415.03
                              419.60   447.45   448.85   496.63   551.43
                              584.33   612.46   679.85   687.19   706.76
                              707.51   728.22   755.35   765.45   806.43
                              930.15   942.65  1023.18  1077.53  1123.04
                             1156.85  1174.79  1256.65  1274.58  1339.18
                             1415.10  1418.85  1439.00  1445.40  1464.22
                             1491.83  1519.12  1519.78  1534.05  1612.02
                             1627.70  1631.03  1702.49  1703.39  1704.49
                             1746.93  1747.91  1753.50  1792.84  1811.20
                             1840.95  1846.26  1893.75  1904.51  1927.84
                             1999.21  2007.58  2079.26  2081.56  2095.19
                             2102.90  2116.21  2120.59  2124.40  2137.30
                             2140.68  2141.08  2144.54  2158.81  2160.22
                             2164.78  2167.26  2169.87  2172.03  2176.39
                             2366.98  2368.50  3191.10  4293.80  4341.66
                             4343.39  4344.64  4346.08  4364.97  4368.01
                             4415.77  4449.93  4453.98  4454.72  4492.80
                             4492.90  4502.09  4502.61  4554.15  4554.35
                             4562.79  4563.34  4564.49  4572.69  4609.58

 Zero-point correction=                           0.339944 (Hartree/Particle)
 Thermal correction to Energy=                    0.357543
 Thermal correction to Enthalpy=                  0.358488
 Thermal correction to Gibbs Free Energy=         0.296078
 Sum of electronic and zero-point Energies=           -729.003356
 Sum of electronic and thermal Energies=              -728.985756
 Sum of electronic and thermal Enthalpies=            -728.984812
 Sum of electronic and thermal Free Energies=         -729.047221

                     E (Thermal)             CV                S
                      KCal/Mol        Cal/Mol-Kelvin    Cal/Mol-Kelvin
 Total                  224.362             69.317            131.353
 Electronic               0.000              0.000              0.000
 Translational            0.889              2.981             43.091
 Rotational               0.889              2.981             32.706
 Vibrational            222.584             63.356             55.555
 Vibration     1          0.595              1.980              5.048
 Vibration     2          0.597              1.972              4.335
 Vibration     3          0.599              1.967              4.071
 Vibration     4          0.611              1.927              3.012
 Vibration     5          0.621              1.893              2.565
 Vibration     6          0.626              1.876              2.406
 Vibration     7          0.629              1.868              2.335
 Vibration     8          0.635              1.849              2.194
 Vibration     9          0.643              1.824              2.036
 Vibration    10          0.651              1.797              1.888
 Vibration    11          0.652              1.797              1.886
 Vibration    12          0.659              1.775              1.783
 Vibration    13          0.674              1.728              1.596
 Vibration    14          0.677              1.719              1.562
 Vibration    15          0.685              1.695              1.483
 Vibration    16          0.687              1.689              1.464
 Vibration    17          0.700              1.653              1.357
 Vibration    18          0.700              1.651              1.352
 Vibration    19          0.724              1.585              1.188
 Vibration    20          0.752              1.506              1.026
 Vibration    21          0.771              1.457              0.940
 Vibration    22          0.788              1.414              0.873
 Vibration    23          0.829              1.311              0.731
 Vibration    24          0.834              1.300              0.717
 Vibration    25          0.847              1.269              0.680
 Vibration    26          0.847              1.268              0.679
 Vibration    27          0.861              1.236              0.643
 Vibration    28          0.880              1.195              0.598
 Vibration    29          0.887              1.179              0.583
 Vibration    30          0.916              1.117              0.523

                           ! Non-Optimized Parameters !
 Normal termination of Gaussian 16 at Fri Mar  8 16:02:00 2024.
