 Gaussian 16, Revision C.01,
 Gaussian 16:  ES64L-G16RevC.01  3-Jul-2019

 ---------------------------------------------------------------
 # wb97xd def2TZVPP SCRF=(solvent=dichloromethane) opt=qst2 freq
 ---------------------------------------------------------------

 -----------------------
 ts_xyz/YIrMeH_sigma.xyz
 -----------------------
 Symbolic Z-matrix:
 Charge =  0 Multiplicity = 1

 -----------------
 ts_xyz/YIrMeH.xyz
 -----------------
 Symbolic Z-matrix:
 Charge =  0 Multiplicity = 1

 SCF Done:  E(RwB97XD) =  -723.141268379     A.U. after   17 cycles
 SCF Done:  E(RwB97XD) =  -723.136934800     A.U. after   15 cycles
 SCF Done:  E(RwB97XD) =  -723.138069027     A.U. after   15 cycles
 SCF Done:  E(RwB97XD) =  -723.140103184     A.U. after   15 cycles
 SCF Done:  E(RwB97XD) =  -723.144033554     A.U. after   15 cycles
 SCF Done:  E(RwB97XD) =  -723.155001412     A.U. after   16 cycles
 SCF Done:  E(RwB97XD) =  -723.159204202     A.U. after   15 cycles
 SCF Done:  E(RwB97XD) =  -723.161833224     A.U. after   15 cycles
 SCF Done:  E(RwB97XD) =  -723.163996128     A.U. after   14 cycles
 SCF Done:  E(RwB97XD) =  -723.164428847     A.U. after   14 cycles
 SCF Done:  E(RwB97XD) =  -723.164720470     A.U. after   10 cycles
 SCF Done:  E(RwB97XD) =  -723.164721607     A.U. after   10 cycles
 SCF Done:  E(RwB97XD) =  -723.164722038     A.U. after    9 cycles
 SCF Done:  E(RwB97XD) =  -723.164722175     A.U. after   10 cycles
 SCF Done:  E(RwB97XD) =  -723.164722268     A.U. after    9 cycles
 SCF Done:  E(RwB97XD) =  -723.164721836     A.U. after   10 cycles
 SCF Done:  E(RwB97XD) =  -723.164721279     A.U. after   10 cycles
 SCF Done:  E(RwB97XD) =  -723.164722565     A.U. after   10 cycles
 SCF Done:  E(RwB97XD) =  -723.164722727     A.U. after    8 cycles
 Optimization completed.
    -- Stationary point found.
 Normal termination of Gaussian 16 at Fri Mar  8 14:58:09 2024.

 ----------------------------------------------------------------------
 #N Geom=AllCheck Guess=TCheck SCRF=Check GenChk RwB97XD/def2TZVPP Freq
 ----------------------------------------------------------------------

 Structure from the checkpoint file:  "QST2_YIrMeH_sigma_YIrMeH.chk"
 -----------------------
 ts_xyz/YIrMeH_sigma.xyz
 -----------------------
 Charge =  0 Multiplicity = 1

                         Standard orientation:
 ---------------------------------------------------------------------
 Center     Atomic      Atomic             Coordinates (Angstroms)
 Number     Number       Type             X           Y           Z
 ---------------------------------------------------------------------
      1          6           0       -1.935734   -1.208463   -0.097788
      2          6           0       -1.933969    1.211152   -0.097572
      3          6           0       -3.315569   -1.214081    0.056485
      4          6           0       -3.313796    1.218742    0.056728
      5          6           0       -3.991923    0.002813    0.145194
      6          1           0       -3.874167   -2.142229    0.102575
      7          1           0       -3.871050    2.147689    0.103011
      8          6           0       -1.053805   -2.402291   -0.352723
      9          1           0       -1.050744   -2.600678   -1.425534
     10          1           0       -1.391758   -3.315417    0.145976
     11          6           0       -1.050373    2.403770   -0.352410
     12          1           0       -1.047305    2.602366   -1.425183
     13          1           0       -1.386961    3.317267    0.146528
     14          7           0        0.377603   -2.124550    0.033963
     15          7           0        0.380775    2.123996    0.033924
     16          6           0        2.915320   -0.001910    0.306581
     17          1           0        2.775130   -0.003675    1.393977
     18          1           0        3.513385   -0.880757    0.053089
     19          1           0        3.512849    0.878035    0.055695
     20          6           0        1.261571   -2.979543   -0.774062
     21          1           0        2.289236   -2.834625   -0.450090
     22          1           0        0.995282   -4.035449   -0.657438
     23          1           0        1.177794   -2.697050   -1.820214
     24          6           0        0.551243   -2.489026    1.455893
     25          1           0        0.360670   -3.557783    1.599529
     26          1           0        1.567038   -2.260222    1.768663
     27          1           0       -0.144876   -1.917836    2.065985
     28          6           0        1.265704    2.977709   -0.774400
     29          1           0        1.000840    4.033978   -0.657834
     30          1           0        2.293258    2.831484   -0.450668
     31          1           0        1.181288    2.695184   -1.820493
     32          6           0        0.555392    2.488296    1.455785
     33          1           0        1.570922    2.257952    1.768298
     34          1           0        0.366481    3.557346    1.599424
     35          1           0       -0.141432    1.918190    2.066083
     36          1           0        2.062543   -0.001663   -0.987134
     37         77           0        0.724476   -0.000518   -0.119302
     38          1           0       -5.066938    0.003585    0.273715
     39          6           0       -1.251519    0.000847   -0.150534
 ---------------------------------------------------------------------

 SCF Done:  E(RwB97XD) =  -723.164722727     A.U. after    1 cycles

 The electronic state is 1-A.
 Alpha  occ. eigenvalues --  -14.49024 -14.49024 -10.31568 -10.31567 -10.30734
 Alpha  occ. eigenvalues --  -10.30734 -10.30649 -10.30649 -10.27761 -10.27759
 Alpha  occ. eigenvalues --  -10.27688 -10.27671 -10.27584 -10.26126 -10.24196
 Alpha  occ. eigenvalues --   -3.72575  -2.06514  -2.06052  -2.04170  -1.05269
 Alpha  occ. eigenvalues --   -1.04899  -0.94871  -0.87413  -0.85065  -0.81548
 Alpha  occ. eigenvalues --   -0.81534  -0.78938  -0.78527  -0.76189  -0.71951
 Alpha  occ. eigenvalues --   -0.70957  -0.66615  -0.66440  -0.60351  -0.58329
 Alpha  occ. eigenvalues --   -0.57639  -0.57355  -0.56789  -0.55621  -0.55418
 Alpha  occ. eigenvalues --   -0.52906  -0.50935  -0.50220  -0.49867  -0.49461
 Alpha  occ. eigenvalues --   -0.48196  -0.47898  -0.47440  -0.46605  -0.46543
 Alpha  occ. eigenvalues --   -0.45922  -0.45649  -0.45543  -0.44934  -0.43115
 Alpha  occ. eigenvalues --   -0.42731  -0.41636  -0.40451  -0.36672  -0.34031
 Alpha  occ. eigenvalues --   -0.32864  -0.31361  -0.26627  -0.26468  -0.25943
 Alpha  occ. eigenvalues --   -0.24120
 Alpha virt. eigenvalues --    0.04114   0.06374   0.09629   0.10601   0.11777
 Alpha virt. eigenvalues --    0.12050   0.12069   0.14092   0.15160   0.15723
 Alpha virt. eigenvalues --    0.15791   0.15967   0.16775   0.16853   0.17044

 Mulliken charges:
               1
     1  C    0.082941
     2  C    0.082937
     3  C   -0.278730
     4  C   -0.278747
     5  C   -0.080256
     6  H    0.114996
     7  H    0.114993
     8  C   -0.058780
     9  H    0.103465
    10  H    0.102237
    11  C   -0.058770
    12  H    0.103474
    13  H    0.102240
    14  N   -0.053954
    15  N   -0.053948
    16  C   -0.536181
    17  H    0.104716
    18  H    0.104744
    19  H    0.104667
    20  C   -0.189267
    21  H    0.103803
    22  H    0.106802
    23  H    0.107730
    24  C   -0.226175
    25  H    0.098917
    26  H    0.114734
    27  H    0.119734
    28  C   -0.189280
    29  H    0.106811
    30  H    0.103815
    31  H    0.107722
    32  C   -0.226138
    33  H    0.114740
    34  H    0.098915
    35  H    0.119722
    36  H    0.036362
    37  Ir  -0.011922
    38  H    0.128472
    39  C   -0.347543
 Sum of Mulliken charges =  -0.00000

 Dipole moment (field-independent basis, Debye):
    X=              0.8041    Y=             -0.0008    Z=              1.5920  Tot=              1.7835
 Quadrupole moment (field-independent basis, Debye-Ang):
   XX=           -122.5786   YY=            -91.6659   ZZ=           -119.1604
   XY=              0.0215   XZ=              0.1659   YZ=             -0.0000

  Exact polarizability:     363.059      -0.042     299.015       2.786       0.000     219.651
 Approx polarizability:     286.266      -0.027     247.685      -2.071       0.005     205.570

 ******    1 imaginary frequencies (negative Signs) ******

                      1                      2                      3
                      A                      A                      A
 Frequencies --   -790.5630                65.5728                70.8083
 Red. masses --      1.1459                 2.8984                 3.4068
 Frc consts  --      0.4220                 0.0073                 0.0101
 IR Inten    --   1525.2627                 0.1997                 6.7259

                      4                      5                      6
                      A                      A                      A
 Frequencies --     91.5228               131.6054               148.0728
 Red. masses --      3.2930                 2.7446                 1.5794
 Frc consts  --      0.0163                 0.0280                 0.0204
 IR Inten    --      0.5263                 6.2063                 0.0485

                      7                      8                      9
                      A                      A                      A
 Frequencies --    163.3334               183.2011               205.4196
 Red. masses --      1.4343                 3.8083                 2.5296
 Frc consts  --      0.0225                 0.0753                 0.0629
 IR Inten    --      0.5037                 1.2999                 0.0069

                     10                     11                     12
                      A                      A                      A
 Frequencies --    210.0218               234.0519               236.0001
 Red. masses --      3.6298                 3.4087                 3.9110
 Frc consts  --      0.0943                 0.1100                 0.1283
 IR Inten    --      2.0006                 0.3676                 8.9432

                     13                     14                     15
                      A                      A                      A
 Frequencies --    257.5209               274.2059               274.5894
 Red. masses --      2.7142                 2.9425                 2.6746
 Frc consts  --      0.1061                 0.1304                 0.1188
 IR Inten    --      1.1049                 3.9263                 0.8659

                     16                     17                     18
                      A                      A                      A
 Frequencies --    291.1444               292.9745               315.3667
 Red. masses --      1.1159                 1.2142                 1.4073
 Frc consts  --      0.0557                 0.0614                 0.0825
 IR Inten    --      1.4803                 0.5212                 0.4035

                     19                     20                     21
                      A                      A                      A
 Frequencies --    317.9838               342.2281               386.3207
 Red. masses --      1.1092                 1.8127                 3.6936
 Frc consts  --      0.0661                 0.1251                 0.3248
 IR Inten    --      2.9876                 0.8616                 5.6913

                     22                     23                     24
                      A                      A                      A
 Frequencies --    408.2126               415.7314               429.5677
 Red. masses --      1.2739                 2.3444                 2.1555
 Frc consts  --      0.1251                 0.2387                 0.2343
 IR Inten    --      0.4200                 0.7936                 2.0585

                     25                     26                     27
                      A                      A                      A
 Frequencies --    465.8066               481.0598               501.9021
 Red. masses --      3.4094                 2.6007                 3.3329
 Frc consts  --      0.4358                 0.3546                 0.4947
 IR Inten    --     94.0541                 0.7503                 6.4297

                     28                     29                     30
                      A                      A                      A
 Frequencies --    508.5052               515.8650               527.1468
 Red. masses --      3.3866                 2.9432                 3.1723
 Frc consts  --      0.5159                 0.4615                 0.5194
 IR Inten    --     11.3181                18.4207                 1.5679

                     31                     32                     33
                      A                      A                      A
 Frequencies --    533.9441               646.1750               661.7240
 Red. masses --      2.8188                 5.2514                 4.5234
 Frc consts  --      0.4735                 1.2919                 1.1670
 IR Inten    --     22.4856                 1.2838                 0.7668

                     34                     35                     36
                      A                      A                      A
 Frequencies --    747.1082               779.6935               795.0696
 Red. masses --      3.1794                 1.5765                 1.2264
 Frc consts  --      1.0456                 0.5647                 0.4568
 IR Inten    --     16.2577                44.6013                56.0616

                     37                     38                     39
                      A                      A                      A
 Frequencies --    806.2801               869.2997               883.5808
 Red. masses --      2.8221                 3.4320                 3.7977
 Frc consts  --      1.0809                 1.5280                 1.7469
 IR Inten    --     14.0319                68.2596                16.4814

                     40                     41                     42
                      A                      A                      A
 Frequencies --    889.2815               930.6995               978.1140
 Red. masses --      1.2013                 1.4329                 1.9515
 Frc consts  --      0.5597                 0.7313                 1.1000
 IR Inten    --      0.3443                12.2285                11.8907

                     43                     44                     45
                      A                      A                      A
 Frequencies --    982.3951               990.9033               999.0235
 Red. masses --      2.1635                 3.0127                 1.6194
 Frc consts  --      1.2302                 1.7429                 0.9523
 IR Inten    --      0.7050                22.6209                18.3773

                     46                     47                     48
                      A                      A                      A
 Frequencies --   1013.2114              1036.5062              1050.5675
 Red. masses --      2.0026                 2.7339                 1.6353
 Frc consts  --      1.2113                 1.7305                 1.0634
 IR Inten    --     23.7820                18.3615                 0.2372

                     49                     50                     51
                      A                      A                      A
 Frequencies --   1050.7580              1069.5194              1129.3082
 Red. masses --      1.6065                 3.0429                 2.3365
 Frc consts  --      1.0450                 2.0507                 1.7556
 IR Inten    --     16.0281                10.1905                 0.1248

                     52                     53                     54
                      A                      A                      A
 Frequencies --   1129.9506              1133.1359              1181.2650
 Red. masses --      1.2649                 1.3368                 1.5219
 Frc consts  --      0.9515                 1.0113                 1.2512
 IR Inten    --      1.2940                 1.9032                 0.6657

                     55                     56                     57
                      A                      A                      A
 Frequencies --   1183.4008              1183.6331              1212.7644
 Red. masses --      1.5160                 1.2627                 1.7739
 Frc consts  --      1.2508                 1.0423                 1.5372
 IR Inten    --      4.6334                 0.0002                 0.8040

                     58                     59                     60
                      A                      A                      A
 Frequencies --   1216.9566              1247.3112              1247.3581
 Red. masses --      1.8051                 1.6865                 1.1727
 Frc consts  --      1.5750                 1.5459                 1.0750
 IR Inten    --      2.8889                 1.7599                 9.5956

                     61                     62                     63
                      A                      A                      A
 Frequencies --   1258.9186              1274.0924              1278.9355
 Red. masses --      2.2503                 2.0004                 2.0692
 Frc consts  --      2.1013                 1.9132                 1.9942
 IR Inten    --      0.7632                 2.5000                 2.6375

                     64                     65                     66
                      A                      A                      A
 Frequencies --   1315.3498              1323.0599              1342.3688
 Red. masses --      1.7585                 1.6234                 2.7761
 Frc consts  --      1.7926                 1.6743                 2.9473
 IR Inten    --      1.1134                11.1953                 0.0421

                     67                     68                     69
                      A                      A                      A
 Frequencies --   1384.4242              1392.5804              1444.6311
 Red. masses --      1.7691                 1.4620                 1.1517
 Frc consts  --      1.9977                 1.6705                 1.4161
 IR Inten    --      2.4341                26.1082                 0.2237

                     70                     71                     72
                      A                      A                      A
 Frequencies --   1445.2712              1459.5005              1461.7620
 Red. masses --      1.1580                 1.0584                 1.7864
 Frc consts  --      1.4251                 1.3283                 2.2490
 IR Inten    --      6.2545                 2.9867                18.4056

                     73                     74                     75
                      A                      A                      A
 Frequencies --   1470.5342              1475.5940              1478.0660
 Red. masses --      1.1634                 1.3893                 1.0973
 Frc consts  --      1.4823                 1.7823                 1.4124
 IR Inten    --      0.7810                13.3196                10.3946

                     76                     77                     78
                      A                      A                      A
 Frequencies --   1483.7342              1485.8352              1487.1863
 Red. masses --      1.0612                 1.0554                 1.0665
 Frc consts  --      1.3764                 1.3728                 1.3897
 IR Inten    --      1.1085                 2.8067                 1.5862

                     79                     80                     81
                      A                      A                      A
 Frequencies --   1490.5174              1499.8670              1501.1086
 Red. masses --      1.0929                 1.0759                 1.0698
 Frc consts  --      1.4306                 1.4260                 1.4203
 IR Inten    --      2.1811                 1.8667                19.0523

                     82                     83                     84
                      A                      A                      A
 Frequencies --   1502.6555              1505.0800              1507.6816
 Red. masses --      1.0741                 1.0526                 1.0864
 Frc consts  --      1.4289                 1.4049                 1.4550
 IR Inten    --     12.9511                35.4064                42.1742

                     85                     86                     87
                      A                      A                      A
 Frequencies --   1508.7628              1513.9721              1643.2817
 Red. masses --      1.0457                 2.2761                 7.3960
 Frc consts  --      1.4025                 3.0738                11.7671
 IR Inten    --      9.8263                 0.0617                 3.7892

                     88                     89                     90
                      A                      A                      A
 Frequencies --   1647.6490              2248.8584              2998.5093
 Red. masses --      6.0105                 1.0144                 1.0370
 Frc consts  --      9.6137                 3.0227                 5.4933
 IR Inten    --     17.2158               128.1988                81.5241

                     91                     92                     93
                      A                      A                      A
 Frequencies --   3025.7911              3025.9213              3026.5071
 Red. masses --      1.0465                 1.0464                 1.0477
 Frc consts  --      5.6452                 5.6452                 5.6542
 IR Inten    --     47.3011                57.1506               242.5368

                     94                     95                     96
                      A                      A                      A
 Frequencies --   3027.8760              3046.7172              3047.5546
 Red. masses --      1.0478                 1.0623                 1.0621
 Frc consts  --      5.6598                 5.8098                 5.8119
 IR Inten    --     16.1105               174.4521                15.0374

                     97                     98                     99
                      A                      A                      A
 Frequencies --   3074.7221              3093.1889              3101.1024
 Red. masses --      1.0950                 1.1018                 1.1017
 Frc consts  --      6.0991                 6.2108                 6.2421
 IR Inten    --    111.0750                64.2418                 4.5338

                    100                    101                    102
                      A                      A                      A
 Frequencies --   3101.2724              3129.0066              3129.1347
 Red. masses --      1.1017                 1.0877                 1.0877
 Frc consts  --      6.2430                 6.2743                 6.2749
 IR Inten    --     28.5657                 3.2190                35.8335

                    103                    104                    105
                      A                      A                      A
 Frequencies --   3133.2459              3133.4016              3169.8703
 Red. masses --      1.0868                 1.0868                 1.1060
 Frc consts  --      6.2864                 6.2868                 6.5475
 IR Inten    --     17.3238                22.1081                21.6427

                    106                    107                    108
                      A                      A                      A
 Frequencies --   3169.9217              3173.4524              3174.4406
 Red. masses --      1.1060                 1.0867                 1.1057
 Frc consts  --      6.5477                 6.4482                 6.5649
 IR Inten    --      3.6816                10.8892                 2.9675

                    109                    110                    111
                      A                      A                      A
 Frequencies --   3174.5599              3179.2842              3204.1015
 Red. masses --      1.1057                 1.0911                 1.0956
 Frc consts  --      6.5651                 6.4980                 6.6268
 IR Inten    --     32.2906                44.5428                55.0270

 - Thermochemistry -
 -------------------
 Temperature   298.150 Kelvin.  Pressure   1.00000 Atm.
 Atom     1 has atomic number  6 and mass  12.00000

 Molecular mass:   400.14942 amu.
 Principal axes and moments of inertia in atomic units:
                           1         2         3
     Eigenvalues --  3423.505803820.132966472.29841
           X            0.99999   0.00038   0.00467
           Y           -0.00038   1.00000  -0.00000
           Z           -0.00467   0.00000   0.99999
 This molecule is an asymmetric top.
 Rotational symmetry number  1.
 Warning -- assumption of classical behavior for rotation
           may cause significant error
 Rotational temperatures (Kelvin)      0.02530     0.02267     0.01338
 Rotational constants (GHZ):           0.52716     0.47243     0.27884
    1 imaginary frequencies ignored.
 Zero-point vibrational energy     894181.9 (Joules/Mol)
                                  213.71460 (Kcal/Mol)
 Warning -- explicit consideration of  30 degrees of freedom as
           vibrations may cause significant error
 Vibrational temperatures:     94.34   101.88   131.68   189.35   213.04
          (Kelvin)            235.00   263.59   295.55   302.17   336.75
                              339.55   370.52   394.52   395.07   418.89
                              421.52   453.74   457.51   492.39   555.83
                              587.33   598.14   618.05   670.19   692.14
                              722.13   731.63   742.21   758.45   768.23
                              929.70   952.07  1074.92  1121.81  1143.93
                             1160.06  1250.73  1271.28  1279.48  1339.07
                             1407.29  1413.45  1425.69  1437.37  1457.79
                             1491.30  1511.53  1511.81  1538.80  1624.82
                             1625.75  1630.33  1699.58  1702.65  1702.98
                             1744.90  1750.93  1794.60  1794.67  1811.30
                             1833.13  1840.10  1892.50  1903.59  1931.37
                             1991.88  2003.61  2078.50  2079.42  2099.90
                             2103.15  2115.77  2123.05  2126.61  2134.76
                             2137.79  2139.73  2144.52  2157.97  2159.76
                             2161.99  2165.47  2169.22  2170.77  2178.27
                             2364.32  2370.60  3235.61  4314.19  4353.44
                             4353.63  4354.47  4356.44  4383.55  4384.75
                             4423.84  4450.41  4461.79  4462.04  4501.94
                             4502.13  4508.04  4508.27  4560.74  4560.81
                             4565.89  4567.31  4567.48  4574.28  4609.99

 Zero-point correction=                           0.340576 (Hartree/Particle)
 Thermal correction to Energy=                    0.358055
 Thermal correction to Enthalpy=                  0.358999
 Thermal correction to Gibbs Free Energy=         0.296922
 Sum of electronic and zero-point Energies=           -722.824147
 Sum of electronic and thermal Energies=              -722.806668
 Sum of electronic and thermal Enthalpies=            -722.805724
 Sum of electronic and thermal Free Energies=         -722.867800

                     E (Thermal)             CV                S
                      KCal/Mol        Cal/Mol-Kelvin    Cal/Mol-Kelvin
 Total                  224.683             69.200            130.651
 Electronic               0.000              0.000              0.000
 Translational            0.889              2.981             43.851
 Rotational               0.889              2.981             32.804
 Vibrational            222.905             63.239             53.996
 Vibration     1          0.597              1.971              4.282
 Vibration     2          0.598              1.968              4.131
 Vibration     3          0.602              1.955              3.627
 Vibration     4          0.612              1.922              2.922
 Vibration     5          0.617              1.905              2.697
 Vibration     6          0.623              1.887              2.511
 Vibration     7          0.631              1.863              2.296
 Vibration     8          0.640              1.832              2.084
 Vibration     9          0.642              1.825              2.043
 Vibration    10          0.654              1.789              1.848
 Vibration    11          0.655              1.786              1.833
 Vibration    12          0.667              1.750              1.679
 Vibration    13          0.677              1.721              1.570
 Vibration    14          0.677              1.720              1.567
 Vibration    15          0.687              1.690              1.467
 Vibration    16          0.688              1.687              1.457
 Vibration    17          0.703              1.644              1.334
 Vibration    18          0.704              1.639              1.320
 Vibration    19          0.721              1.591              1.202
 Vibration    20          0.755              1.499              1.014
 Vibration    21          0.773              1.452              0.933
 Vibration    22          0.779              1.436              0.907
 Vibration    23          0.791              1.406              0.860
 Vibration    24          0.823              1.326              0.749
 Vibration    25          0.837              1.292              0.707
 Vibration    26          0.857              1.246              0.653
 Vibration    27          0.864              1.231              0.637
 Vibration    28          0.871              1.215              0.620
 Vibration    29          0.882              1.190              0.594
 Vibration    30          0.889              1.175              0.578

                           ! Non-Optimized Parameters !
 Normal termination of Gaussian 16 at Fri Mar  8 16:10:39 2024.
