 Gaussian 16, Revision C.01,
 Gaussian 16:  ES64L-G16RevC.01  3-Jul-2019

 ----------------------------------------------------------
 # wb97xd def2TZVPP SCRF=(solvent=dichloromethane) opt freq
 ----------------------------------------------------------

 ---
 YIr
 ---
 Symbolic Z-matrix:
 Charge =  0 Multiplicity = 1

 SCF Done:  E(RwB97XD) =  -682.648516642     A.U. after   17 cycles
 SCF Done:  E(RwB97XD) =  -682.652941547     A.U. after   15 cycles
 SCF Done:  E(RwB97XD) =  -682.653235076     A.U. after   14 cycles
 SCF Done:  E(RwB97XD) =  -682.653291848     A.U. after   14 cycles
 SCF Done:  E(RwB97XD) =  -682.653296957     A.U. after   12 cycles
 SCF Done:  E(RwB97XD) =  -682.653298110     A.U. after   11 cycles
 Optimization completed.
    -- Stationary point found.
 Normal termination of Gaussian 16 at Thu Mar  7 16:03:11 2024.

 ----------------------------------------------------------------------
 #N Geom=AllCheck Guess=TCheck SCRF=Check GenChk RwB97XD/def2TZVPP Freq
 ----------------------------------------------------------------------

 Structure from the checkpoint file:  "YIr.chk"
 ---
 YIr
 ---
 Charge =  0 Multiplicity = 1

                         Standard orientation:
 ---------------------------------------------------------------------
 Center     Atomic      Atomic             Coordinates (Angstroms)
 Number     Number       Type             X           Y           Z
 ---------------------------------------------------------------------
      1          6           0       -1.733479   -0.108804    1.214606
      2          6           0       -1.733479   -0.108804   -1.214606
      3          6           0       -3.114774   -0.002752    1.212439
      4          6           0       -3.114774   -0.002752   -1.212439
      5          6           0       -3.803133    0.072963    0.000000
      6          1           0       -3.669132    0.009166    2.144844
      7          1           0       -3.669132    0.009166   -2.144844
      8          6           0       -0.852473   -0.373732    2.403935
      9          1           0       -0.823174   -1.449795    2.583454
     10          1           0       -1.202358    0.101060    3.325534
     11          6           0       -0.852473   -0.373732   -2.403935
     12          1           0       -0.823174   -1.449795   -2.583454
     13          1           0       -1.202358    0.101060   -3.325534
     14          7           0        0.563406    0.051059    2.123452
     15          7           0        0.563406    0.051059   -2.123452
     16          6           0        1.482254   -0.771059    2.925546
     17          1           0        2.502395   -0.427925    2.761354
     18          1           0        1.249539   -0.693221    3.993815
     19          1           0        1.403887   -1.809135    2.611269
     20          6           0        0.713998    1.460833    2.538709
     21          1           0        0.561161    1.555766    3.619997
     22          1           0        1.711230    1.813713    2.286209
     23          1           0       -0.017734    2.072200    2.016888
     24          6           0        1.482254   -0.771059   -2.925546
     25          1           0        1.249539   -0.693221   -3.993815
     26          1           0        2.502395   -0.427925   -2.761354
     27          1           0        1.403887   -1.809135   -2.611269
     28          6           0        0.713998    1.460833   -2.538709
     29          1           0        1.711230    1.813713   -2.286209
     30          1           0        0.561161    1.555766   -3.619997
     31          1           0       -0.017734    2.072200   -2.016888
     32         77           0        0.839603   -0.070997   -0.000000
     33          6           0       -1.035839   -0.108384    0.000000
     34          1           0       -4.881245    0.166990    0.000000
 ---------------------------------------------------------------------

 SCF Done:  E(RwB97XD) =  -682.653298110     A.U. after    1 cycles

 The electronic state is 1-A'.
 Alpha  occ. eigenvalues --  -14.48496 -14.48495 -10.31246 -10.31245 -10.30661
 Alpha  occ. eigenvalues --  -10.30661 -10.30447 -10.30447 -10.27191 -10.27190
 Alpha  occ. eigenvalues --  -10.26875 -10.26874 -10.26404 -10.25858  -3.69962
 Alpha  occ. eigenvalues --   -2.04180  -2.03735  -2.01347  -1.05001  -1.04613
 Alpha  occ. eigenvalues --   -0.94299  -0.87016  -0.84581  -0.81332  -0.81307
 Alpha  occ. eigenvalues --   -0.78522  -0.78109  -0.71676  -0.70593  -0.66227
 Alpha  occ. eigenvalues --   -0.66086  -0.59934  -0.58021  -0.57369  -0.57109
 Alpha  occ. eigenvalues --   -0.56504  -0.55248  -0.55058  -0.52540  -0.50107
 Alpha  occ. eigenvalues --   -0.49762  -0.49547  -0.48138  -0.47585  -0.46991
 Alpha  occ. eigenvalues --   -0.46319  -0.45650  -0.45491  -0.45226  -0.43999
 Alpha  occ. eigenvalues --   -0.42364  -0.41199  -0.40162  -0.37047  -0.35937
 Alpha  occ. eigenvalues --   -0.33350  -0.30889  -0.25119  -0.23799  -0.22757
 Alpha  occ. eigenvalues --   -0.21873
 Alpha virt. eigenvalues --    0.05880   0.06085   0.06924   0.11018   0.11273
 Alpha virt. eigenvalues --    0.11831   0.12812   0.14587   0.15905   0.15920
 Alpha virt. eigenvalues --    0.16350   0.16758   0.16970   0.17065   0.17419

 Mulliken charges:
               1
     1  C    0.049479
     2  C    0.049479
     3  C   -0.263890
     4  C   -0.263890
     5  C   -0.131852
     6  H    0.111497
     7  H    0.111497
     8  C   -0.074892
     9  H    0.100135
    10  H    0.098598
    11  C   -0.074892
    12  H    0.100135
    13  H    0.098598
    14  N   -0.030440
    15  N   -0.030440
    16  C   -0.177902
    17  H    0.102308
    18  H    0.103216
    19  H    0.102173
    20  C   -0.203358
    21  H    0.094392
    22  H    0.102774
    23  H    0.121184
    24  C   -0.177902
    25  H    0.103216
    26  H    0.102308
    27  H    0.102173
    28  C   -0.203358
    29  H    0.102774
    30  H    0.094392
    31  H    0.121184
    32  Ir  -0.252772
    33  C   -0.210148
    34  H    0.124221
 Sum of Mulliken charges =  -0.00000

 Dipole moment (field-independent basis, Debye):
    X=              4.2826    Y=              0.9508    Z=              0.0000  Tot=              4.3868
 Quadrupole moment (field-independent basis, Debye-Ang):
   XX=           -109.7039   YY=           -112.3249   ZZ=            -85.5344
   XY=              1.1658   XZ=             -0.0000   YZ=             -0.0000

  Exact polarizability:     347.708      -5.659     231.878      -0.000       0.000     296.705
 Approx polarizability:     268.938      -3.296     199.480      -0.000      -0.000     237.094

                      1                      2                      3
                     A"                     A'                     A'
 Frequencies --     63.8743                73.0180               108.4486
 Red. masses --      2.9180                 3.6635                 3.1955
 Frc consts  --      0.0070                 0.0115                 0.0221
 IR Inten    --      0.6316                 6.2145                 0.2200

                      4                      5                      6
                     A'                     A"                     ?A
 Frequencies --    174.5445               199.9708               212.8587
 Red. masses --      3.5075                 3.0816                 3.3311
 Frc consts  --      0.0630                 0.0726                 0.0889
 IR Inten    --      7.7080                 1.2376                 2.5644

                      7                      8                      9
                     ?A                     A"                     A'
 Frequencies --    213.3153               243.2237               261.4689
 Red. masses --      3.8582                 3.5648                 3.5972
 Frc consts  --      0.1034                 0.1242                 0.1449
 IR Inten    --     25.1525                 0.4780                 0.6722

                     10                     11                     12
                     A"                     A'                     A"
 Frequencies --    268.8186               280.0372               286.4230
 Red. masses --      3.4228                 2.7562                 1.0767
 Frc consts  --      0.1457                 0.1273                 0.0520
 IR Inten    --      5.1549                 7.4173                 0.5786

                     13                     14                     15
                     A'                     A"                     A'
 Frequencies --    288.2958               316.5389               319.4397
 Red. masses --      1.1504                 1.3299                 1.1075
 Frc consts  --      0.0563                 0.0785                 0.0666
 IR Inten    --      1.0627                 0.0248                 1.3303

                     16                     17                     18
                     A"                     A'                     A'
 Frequencies --    352.7047               396.7604               421.1654
 Red. masses --      2.3765                 3.5976                 2.4115
 Frc consts  --      0.1742                 0.3337                 0.2520
 IR Inten    --      3.3436                 0.1091                 1.2540

                     19                     20                     21
                     A"                     A"                     A"
 Frequencies --    430.3684               476.3367               494.2237
 Red. masses --      2.1265                 2.7424                 3.4353
 Frc consts  --      0.2321                 0.3666                 0.4944
 IR Inten    --      7.2128                 1.9798                 0.7760

                     22                     23                     24
                     A'                     A'                     A"
 Frequencies --    507.3731               517.5418               526.2847
 Red. masses --      3.8206                 2.7307                 2.7244
 Frc consts  --      0.5795                 0.4309                 0.4446
 IR Inten    --      8.5239                 0.9100                12.8697

                     25                     26                     27
                     A'                     A"                     A'
 Frequencies --    530.5468               641.9020               663.9146
 Red. masses --      3.2392                 5.2703                 4.3648
 Frc consts  --      0.5372                 1.2795                 1.1335
 IR Inten    --      1.1480                 4.2176                 5.9835

                     28                     29                     30
                     A'                     A'                     A'
 Frequencies --    727.1728               767.1278               804.4588
 Red. masses --      3.4575                 1.3939                 4.1032
 Frc consts  --      1.0772                 0.4833                 1.5645
 IR Inten    --      8.5224                57.9057                39.3290

                     31                     32                     33
                     A"                     A'                     A"
 Frequencies --    870.8374               881.9215               927.5256
 Red. masses --      3.5111                 3.8005                 1.4345
 Frc consts  --      1.5688                 1.7416                 0.7271
 IR Inten    --     56.8997                 7.3188                 8.4255

                     34                     35                     36
                     A'                     A"                     A'
 Frequencies --    969.9512               982.5755               988.8249
 Red. masses --      1.4647                 2.1756                 1.8539
 Frc consts  --      0.8119                 1.2375                 1.0680
 IR Inten    --      1.6634                 1.5031                16.3086

                     37                     38                     39
                     A"                     A'                     A"
 Frequencies --    995.1196              1012.9969              1031.3017
 Red. masses --      2.9083                 2.3147                 2.6941
 Frc consts  --      1.6968                 1.3995                 1.6883
 IR Inten    --     13.2423                33.9569                39.8485

                     40                     41                     42
                     A"                     A'                     A'
 Frequencies --   1048.7451              1049.2375              1070.6124
 Red. masses --      1.5975                 1.5869                 2.6277
 Frc consts  --      1.0352                 1.0293                 1.7746
 IR Inten    --      0.0715                14.1289               100.9189

                     43                     44                     45
                     A"                     A'                     A'
 Frequencies --   1126.7929              1129.9423              1141.4619
 Red. masses --      1.2682                 1.2735                 3.0283
 Frc consts  --      0.9487                 0.9580                 2.3247
 IR Inten    --      1.2853                 4.0259               101.6388

                     46                     47                     48
                     A"                     A"                     A'
 Frequencies --   1177.9249              1178.8757              1180.4510
 Red. masses --      1.4892                 1.2691                 1.5019
 Frc consts  --      1.2174                 1.0391                 1.2331
 IR Inten    --      1.0101                 2.3493                 6.8194

                     49                     50                     51
                     A"                     A'                     A"
 Frequencies --   1211.7756              1214.4558              1248.7120
 Red. masses --      1.7898                 1.8106                 1.6426
 Frc consts  --      1.5485                 1.5734                 1.5090
 IR Inten    --      0.6455                 4.0173                 4.4902

                     52                     53                     54
                     A'                     A"                     A'
 Frequencies --   1260.3238              1275.3098              1280.8371
 Red. masses --      2.3199                 2.0356                 2.1174
 Frc consts  --      2.1711                 1.9507                 2.0466
 IR Inten    --      7.7246                 3.0370                 9.3775

                     55                     56                     57
                     A"                     A'                     A"
 Frequencies --   1310.6450              1319.0694              1348.8723
 Red. masses --      1.8364                 1.7680                 2.9463
 Frc consts  --      1.8586                 1.8125                 3.1584
 IR Inten    --     11.4395                42.0525                17.1149

                     58                     59                     60
                     A'                     A"                     A'
 Frequencies --   1371.4555              1386.1121              1442.9447
 Red. masses --      1.7692                 1.4254                 1.1583
 Frc consts  --      1.9606                 1.6136                 1.4210
 IR Inten    --     60.3077                36.9368                13.1651

                     61                     62                     63
                     A"                     A'                     A"
 Frequencies --   1443.1048              1454.2474              1467.8447
 Red. masses --      1.1574                 1.9940                 1.1696
 Frc consts  --      1.4202                 2.4846                 1.4847
 IR Inten    --      0.0096               131.2756                 0.0001

                     64                     65                     66
                     A'                     A"                     A'
 Frequencies --   1472.2534              1483.0974              1483.8256
 Red. masses --      1.2725                 1.0644                 1.0749
 Frc consts  --      1.6250                 1.3795                 1.3944
 IR Inten    --     38.2141                 0.0010                 5.5944

                     67                     68                     69
                     A"                     A'                     A"
 Frequencies --   1485.0621              1485.6045              1498.1896
 Red. masses --      1.0538                 1.0588                 1.0517
 Frc consts  --      1.3693                 1.3769                 1.3908
 IR Inten    --      0.1512                 5.6772                 0.3816

                     70                     71                     72
                     A"                     A'                     A'
 Frequencies --   1498.6610              1498.8418              1500.3453
 Red. masses --      1.1216                 1.0540                 1.0809
 Frc consts  --      1.4841                 1.3951                 1.4336
 IR Inten    --     20.6726                45.9598                20.7287

                     73                     74                     75
                     A"                     A'                     A"
 Frequencies --   1505.5588              1506.2064              1513.8190
 Red. masses --      1.0539                 1.0431                 2.5144
 Frc consts  --      1.4075                 1.3943                 3.3949
 IR Inten    --     31.4128                11.2324                 0.0072

                     76                     77                     78
                     A"                     A'                     A"
 Frequencies --   1619.8991              1643.9104              3013.8090
 Red. masses --      6.8561                 5.9142                 1.0487
 Frc consts  --     10.6000                 9.4169                 5.6125
 IR Inten    --      1.5550               181.6682                17.8217

                     79                     80                     81
                     A'                     A"                     A'
 Frequencies --   3013.8529              3015.7416              3017.3041
 Red. masses --      1.0485                 1.0480                 1.0481
 Frc consts  --      5.6115                 5.6157                 5.6222
 IR Inten    --     65.6488               332.1396                27.0283

                     82                     83                     84
                     A"                     A'                     A"
 Frequencies --   3042.8971              3043.6698              3094.0916
 Red. masses --      1.0614                 1.0613                 1.1024
 Frc consts  --      5.7905                 5.7926                 6.2180
 IR Inten    --    186.8943                16.1300                 4.9507

                     85                     86                     87
                     A'                     A"                     A'
 Frequencies --   3094.1903              3118.8310              3118.9135
 Red. masses --      1.1024                 1.0877                 1.0876
 Frc consts  --      6.2187                 6.2337                 6.2336
 IR Inten    --     31.4399                18.2238                17.2255

                     88                     89                     90
                     A'                     A"                     A"
 Frequencies --   3127.3699              3127.4441              3161.1570
 Red. masses --      1.0844                 1.0844                 1.1051
 Frc consts  --      6.2486                 6.2493                 6.5065
 IR Inten    --      7.5338                45.8845                 1.5123

                     91                     92                     93
                     A'                     A'                     A'
 Frequencies --   3161.2653              3169.0015              3170.8551
 Red. masses --      1.1051                 1.0868                 1.1055
 Frc consts  --      6.5070                 6.4306                 6.5486
 IR Inten    --     33.2126                19.6182                22.9926

                     94                     95                     96
                     A"                     A"                     A'
 Frequencies --   3170.8591              3173.3338              3205.5300
 Red. masses --      1.1054                 1.0908                 1.0949
 Frc consts  --      6.5485                 6.4720                 6.6288
 IR Inten    --      1.6182                52.1400                50.3872

 - Thermochemistry -
 -------------------
 Temperature   298.150 Kelvin.  Pressure   1.00000 Atm.
 Atom     1 has atomic number  6 and mass  12.00000

 Molecular mass:   384.11812 amu.
 Principal axes and moments of inertia in atomic units:
                           1         2         3
     Eigenvalues --  3214.253323392.024285872.92664
           X            0.00000   1.00000   0.00294
           Y            0.00000  -0.00294   1.00000
           Z            1.00000   0.00000  -0.00000
 This molecule is an asymmetric top.
 Rotational symmetry number  1.
 Warning -- assumption of classical behavior for rotation
           may cause significant error
 Rotational temperatures (Kelvin)      0.02695     0.02553     0.01475
 Rotational constants (GHZ):           0.56148     0.53205     0.30730
 Zero-point vibrational energy     781187.5 (Joules/Mol)
                                  186.70830 (Kcal/Mol)
 Warning -- explicit consideration of  25 degrees of freedom as
           vibrations may cause significant error
 Vibrational temperatures:     91.90   105.06   156.03   251.13   287.71
          (Kelvin)            306.26   306.91   349.94   376.20   386.77
                              402.91   412.10   414.79   455.43   459.60
                              507.46   570.85   605.96   619.20   685.34
                              711.08   730.00   744.63   757.21   763.34
                              923.55   955.23  1046.24  1103.73  1157.44
                             1252.94  1268.89  1334.50  1395.54  1413.71
                             1422.70  1431.76  1457.48  1483.81  1508.91
                             1509.62  1540.37  1621.20  1625.73  1642.31
                             1694.77  1696.14  1698.41  1743.47  1747.33
                             1796.62  1813.32  1834.89  1842.84  1885.73
                             1897.85  1940.73  1973.22  1994.31  2076.08
                             2076.31  2092.34  2111.90  2118.24  2133.85
                             2134.89  2136.67  2137.45  2155.56  2156.24
                             2156.50  2158.66  2166.16  2167.10  2178.05
                             2330.67  2365.22  4336.20  4336.26  4338.98
                             4341.23  4378.05  4379.16  4451.71  4451.85
                             4487.30  4487.42  4499.59  4499.69  4548.20
                             4548.36  4559.49  4562.15  4562.16  4565.72
                             4612.04

 Zero-point correction=                           0.297539 (Hartree/Particle)
 Thermal correction to Energy=                    0.312373
 Thermal correction to Enthalpy=                  0.313317
 Thermal correction to Gibbs Free Energy=         0.256344
 Sum of electronic and zero-point Energies=           -682.355759
 Sum of electronic and thermal Energies=              -682.340925
 Sum of electronic and thermal Enthalpies=            -682.339981
 Sum of electronic and thermal Free Energies=         -682.396954

                     E (Thermal)             CV                S
                      KCal/Mol        Cal/Mol-Kelvin    Cal/Mol-Kelvin
 Total                  196.017             59.312            119.910
 Electronic               0.000              0.000              0.000
 Translational            0.889              2.981             43.730
 Rotational               0.889              2.981             32.526
 Vibrational            194.239             53.351             43.654
 Vibration     1          0.597              1.972              4.334
 Vibration     2          0.599              1.967              4.070
 Vibration     3          0.606              1.942              3.296
 Vibration     4          0.627              1.874              2.386
 Vibration     5          0.638              1.840              2.133
 Vibration     6          0.644              1.821              2.019
 Vibration     7          0.644              1.821              2.015
 Vibration     8          0.659              1.774              1.779
 Vibration     9          0.669              1.743              1.652
 Vibration    10          0.673              1.730              1.604
 Vibration    11          0.680              1.711              1.533
 Vibration    12          0.684              1.699              1.495
 Vibration    13          0.685              1.695              1.484
 Vibration    14          0.703              1.642              1.328
 Vibration    15          0.705              1.636              1.313
 Vibration    16          0.729              1.570              1.154
 Vibration    17          0.763              1.477              0.975
 Vibration    18          0.784              1.424              0.888
 Vibration    19          0.792              1.404              0.857
 Vibration    20          0.833              1.303              0.720
 Vibration    21          0.850              1.263              0.673
 Vibration    22          0.863              1.234              0.640
 Vibration    23          0.873              1.211              0.616
 Vibration    24          0.881              1.192              0.596
 Vibration    25          0.886              1.182              0.586

 Optimization completed.
    -- Stationary point found.
 Normal termination of Gaussian 16 at Thu Mar  7 19:38:15 2024.
