 Gaussian 16, Revision C.01,
 Gaussian 16:  ES64L-G16RevC.01  3-Jul-2019

 ----------------------------------------------------------
 # wb97xd def2TZVPP SCRF=(solvent=dichloromethane) opt freq
 ----------------------------------------------------------

 ------
 YIrMeH
 ------
 Symbolic Z-matrix:
 Charge =  0 Multiplicity = 1

 SCF Done:  E(RwB97XD) =  -723.177155919     A.U. after   17 cycles
 SCF Done:  E(RwB97XD) =  -723.182146627     A.U. after   13 cycles
 SCF Done:  E(RwB97XD) =  -723.182437872     A.U. after   12 cycles
 SCF Done:  E(RwB97XD) =  -723.182542843     A.U. after   12 cycles
 SCF Done:  E(RwB97XD) =  -723.182635496     A.U. after   12 cycles
 SCF Done:  E(RwB97XD) =  -723.182734427     A.U. after   13 cycles
 SCF Done:  E(RwB97XD) =  -723.182876409     A.U. after   11 cycles
 SCF Done:  E(RwB97XD) =  -723.182951958     A.U. after   13 cycles
 SCF Done:  E(RwB97XD) =  -723.182977122     A.U. after   12 cycles
 SCF Done:  E(RwB97XD) =  -723.182972801     A.U. after   12 cycles
 SCF Done:  E(RwB97XD) =  -723.182985648     A.U. after   12 cycles
 SCF Done:  E(RwB97XD) =  -723.182988168     A.U. after   10 cycles
 SCF Done:  E(RwB97XD) =  -723.182988903     A.U. after   11 cycles
 SCF Done:  E(RwB97XD) =  -723.182988549     A.U. after   11 cycles
 SCF Done:  E(RwB97XD) =  -723.182988802     A.U. after    8 cycles
 Optimization completed.
    -- Stationary point found.
 Normal termination of Gaussian 16 at Thu Mar  7 22:40:03 2024.

 ----------------------------------------------------------------------
 #N Geom=AllCheck Guess=TCheck SCRF=Check GenChk RwB97XD/def2TZVPP Freq
 ----------------------------------------------------------------------

 Structure from the checkpoint file:  "YIrMeH.chk"
 ------
 YIrMeH
 ------
 Charge =  0 Multiplicity = 1

                         Standard orientation:
 ---------------------------------------------------------------------
 Center     Atomic      Atomic             Coordinates (Angstroms)
 Number     Number       Type             X           Y           Z
 ---------------------------------------------------------------------
      1          6           0        1.902290    1.212761   -0.093181
      2          6           0        1.902830   -1.211920   -0.093238
      3          6           0        3.265358    1.215399    0.164294
      4          6           0        3.265897   -1.213977    0.164231
      5          6           0        3.938359    0.000857    0.305075
      6          1           0        3.815103    2.146114    0.249934
      7          1           0        3.816049   -2.144455    0.249820
      8          6           0        1.024826    2.395268   -0.404773
      9          1           0        1.021057    2.549974   -1.485221
     10          1           0        1.357925    3.327237    0.059598
     11          6           0        1.025885   -2.394792   -0.404870
     12          1           0        1.022128   -2.549428   -1.485328
     13          1           0        1.359430   -3.326641    0.059427
     14          7           0       -0.405495    2.126047   -0.009641
     15          7           0       -0.404506   -2.126196   -0.009632
     16          6           0       -2.688576   -0.000731    0.811232
     17          1           0       -2.480271   -0.000742    1.894365
     18          1           0       -3.315769    0.881759    0.634746
     19          1           0       -3.315289   -0.883543    0.634644
     20          6           0       -1.299986    2.958094   -0.829842
     21          1           0       -2.325356    2.799807   -0.505111
     22          1           0       -1.046835    4.018101   -0.725197
     23          1           0       -1.208383    2.665140   -1.872654
     24          6           0       -0.572349    2.511883    1.406554
     25          1           0       -0.369882    3.579095    1.534663
     26          1           0       -1.588721    2.295595    1.723568
     27          1           0        0.123405    1.942050    2.019649
     28          6           0       -1.298718   -2.958627   -0.829754
     29          1           0       -1.045096   -4.018524   -0.725143
     30          1           0       -2.324127   -2.800803   -0.504926
     31          1           0       -1.207337   -2.665625   -1.872573
     32          6           0       -0.571074   -2.511995    1.406601
     33          1           0       -1.587503   -2.296060    1.723668
     34          1           0       -0.368201   -3.579124    1.534774
     35          1           0        0.124504   -1.941857    2.019613
     36          1           0       -0.278672   -0.000142   -1.649924
     37         77           0       -0.730329   -0.000168   -0.161489
     38          1           0        5.000258    0.001084    0.513860
     39          6           0        1.226413    0.000272   -0.178446
 ---------------------------------------------------------------------

 SCF Done:  E(RwB97XD) =  -723.182988802     A.U. after    1 cycles

 The electronic state is 1-A.
 Alpha  occ. eigenvalues --  -14.49537 -14.49537 -10.31836 -10.31835 -10.30855
 Alpha  occ. eigenvalues --  -10.30854 -10.30832 -10.30832 -10.27826 -10.27824
 Alpha  occ. eigenvalues --  -10.27565 -10.27564 -10.27172 -10.26033 -10.21967
 Alpha  occ. eigenvalues --   -3.75797  -2.09276  -2.08758  -2.07855  -1.05690
 Alpha  occ. eigenvalues --   -1.05299  -0.95047  -0.87597  -0.85251  -0.81813
 Alpha  occ. eigenvalues --   -0.81802  -0.79102  -0.78748  -0.73038  -0.72174
 Alpha  occ. eigenvalues --   -0.71123  -0.66843  -0.66762  -0.60597  -0.58609
 Alpha  occ. eigenvalues --   -0.57915  -0.57668  -0.57102  -0.55884  -0.55654
 Alpha  occ. eigenvalues --   -0.53183  -0.50522  -0.50344  -0.49982  -0.48804
 Alpha  occ. eigenvalues --   -0.48184  -0.47624  -0.46872  -0.46233  -0.46132
 Alpha  occ. eigenvalues --   -0.45888  -0.45528  -0.44428  -0.43219  -0.42728
 Alpha  occ. eigenvalues --   -0.42293  -0.41819  -0.40735  -0.38773  -0.37044
 Alpha  occ. eigenvalues --   -0.33954  -0.31599  -0.29402  -0.29321  -0.27205
 Alpha  occ. eigenvalues --   -0.24143
 Alpha virt. eigenvalues --    0.04106   0.06304   0.08668   0.09652   0.11100
 Alpha virt. eigenvalues --    0.12049   0.12308   0.14103   0.14966   0.15612
 Alpha virt. eigenvalues --    0.15667   0.15880   0.16455   0.16652   0.17150

 Mulliken charges:
               1
     1  C    0.063028
     2  C    0.063067
     3  C   -0.262159
     4  C   -0.262158
     5  C   -0.105796
     6  H    0.115159
     7  H    0.115160
     8  C   -0.075786
     9  H    0.104866
    10  H    0.101645
    11  C   -0.075781
    12  H    0.104866
    13  H    0.101644
    14  N   -0.034889
    15  N   -0.034863
    16  C   -0.766456
    17  H    0.084265
    18  H    0.076270
    19  H    0.076277
    20  C   -0.182007
    21  H    0.108296
    22  H    0.108160
    23  H    0.104769
    24  C   -0.233498
    25  H    0.102927
    26  H    0.123515
    27  H    0.122087
    28  C   -0.182015
    29  H    0.108160
    30  H    0.108306
    31  H    0.104772
    32  C   -0.233520
    33  H    0.123526
    34  H    0.102925
    35  H    0.122092
    36  H   -0.036695
    37  Ir   0.319778
    38  H    0.127455
    39  C   -0.307392
 Sum of Mulliken charges =  -0.00000

 Dipole moment (field-independent basis, Debye):
    X=              0.9281    Y=              0.0004    Z=              0.5081  Tot=              1.0580
 Quadrupole moment (field-independent basis, Debye-Ang):
   XX=           -131.4052   YY=            -90.2721   ZZ=           -118.4934
   XY=             -0.0099   XZ=              1.9783   YZ=              0.0009

  Exact polarizability:     343.796       0.009     296.993       9.934       0.002     210.450
 Approx polarizability:     272.511       0.005     246.945       7.371       0.003     201.452

                      1                      2                      3
                      A                      A                      A
 Frequencies --     66.2632                77.1447                80.2040
 Red. masses --      3.1149                 3.6927                 2.9772
 Frc consts  --      0.0081                 0.0129                 0.0113
 IR Inten    --      8.0559                 3.6424                 0.6404

                      4                      5                      6
                      A                      A                      A
 Frequencies --    136.0886               184.7503               190.6398
 Red. masses --      3.0737                 3.7666                 2.7762
 Frc consts  --      0.0335                 0.0757                 0.0594
 IR Inten    --      2.1978                 4.4445                 1.4374

                      7                      8                      9
                      A                      A                      A
 Frequencies --    206.6917               219.6885               228.4723
 Red. masses --      2.8195                 2.1474                 3.4312
 Frc consts  --      0.0710                 0.0611                 0.1055
 IR Inten    --      0.5358                 0.0874                12.9284

                     10                     11                     12
                      A                      A                      A
 Frequencies --    229.6897               246.4284               259.7942
 Red. masses --      1.3485                 2.6343                 2.4069
 Frc consts  --      0.0419                 0.0943                 0.0957
 IR Inten    --      1.7493                 2.1562                 3.4308

                     13                     14                     15
                      A                      A                      A
 Frequencies --    276.1681               280.4083               294.1827
 Red. masses --      2.9522                 2.8110                 1.1947
 Frc consts  --      0.1327                 0.1302                 0.0609
 IR Inten    --      2.1321                 6.5310                 1.1396

                     16                     17                     18
                      A                      A                      A
 Frequencies --    296.0378               322.6316               324.6065
 Red. masses --      1.2429                 1.3388                 1.1750
 Frc consts  --      0.0642                 0.0821                 0.0729
 IR Inten    --      1.0455                 0.2509                 3.6530

                     19                     20                     21
                      A                      A                      A
 Frequencies --    353.5607               389.0844               417.0379
 Red. masses --      2.2068                 3.3512                 2.3687
 Frc consts  --      0.1625                 0.2989                 0.2427
 IR Inten    --      1.0973                 3.4654                 2.4660

                     22                     23                     24
                      A                      A                      A
 Frequencies --    434.3952               438.9197               475.4615
 Red. masses --      2.1433                 2.9773                 2.7004
 Frc consts  --      0.2383                 0.3379                 0.3597
 IR Inten    --      2.1428                39.3873                 0.2205

                     25                     26                     27
                      A                      A                      A
 Frequencies --    500.0948               502.2348               517.9583
 Red. masses --      3.4041                 2.8775                 2.6363
 Frc consts  --      0.5016                 0.4276                 0.4167
 IR Inten    --      5.8712                 5.6095                 8.1590

                     28                     29                     30
                      A                      A                      A
 Frequencies --    526.3891               531.5635               534.4275
 Red. masses --      1.4432                 2.5353                 2.7087
 Frc consts  --      0.2356                 0.4221                 0.4558
 IR Inten    --     35.0976                 8.4705                26.4455

                     31                     32                     33
                      A                      A                      A
 Frequencies --    643.5008               660.1396               664.2878
 Red. masses --      3.5414                 3.2828                 1.2074
 Frc consts  --      0.8640                 0.8429                 0.3139
 IR Inten    --      0.8632                 7.0968                 1.5741

                     34                     35                     36
                      A                      A                      A
 Frequencies --    678.7050               748.9940               774.0511
 Red. masses --      1.6677                 1.1511                 1.5941
 Frc consts  --      0.4526                 0.3805                 0.5627
 IR Inten    --      5.7329                 5.3417                47.1081

                     37                     38                     39
                      A                      A                      A
 Frequencies --    784.7279               810.8818               871.0238
 Red. masses --      2.0082                 3.4905                 3.5157
 Frc consts  --      0.7286                 1.3522                 1.5715
 IR Inten    --     74.4628                 0.6953                73.7137

                     40                     41                     42
                      A                      A                      A
 Frequencies --    887.2239               933.0606               978.0427
 Red. masses --      3.8104                 1.4500                 1.7627
 Frc consts  --      1.7672                 0.7438                 0.9935
 IR Inten    --     16.0330                12.2001                 5.1201

                     43                     44                     45
                      A                      A                      A
 Frequencies --    981.1670               992.8573               993.6921
 Red. masses --      2.1530                 1.5874                 2.9314
 Frc consts  --      1.2212                 0.9219                 1.7054
 IR Inten    --      2.9903                16.6726                20.0439

                     46                     47                     48
                      A                      A                      A
 Frequencies --   1014.3972              1039.1008              1053.0777
 Red. masses --      2.2655                 2.6714                 1.6312
 Frc consts  --      1.3735                 1.6994                 1.0658
 IR Inten    --     33.3143                23.3923                 1.7293

                     49                     50                     51
                      A                      A                      A
 Frequencies --   1053.1050              1069.1844              1129.2104
 Red. masses --      1.6128                 2.9315                 2.6141
 Frc consts  --      1.0539                 1.9744                 1.9639
 IR Inten    --     17.2179                39.7735                11.9164

                     52                     53                     54
                      A                      A                      A
 Frequencies --   1133.0275              1135.4347              1181.1135
 Red. masses --      1.2586                 1.2750                 1.4891
 Frc consts  --      0.9520                 0.9684                 1.2239
 IR Inten    --      0.3779                 1.3159                 1.2997

                     55                     56                     57
                      A                      A                      A
 Frequencies --   1182.4358              1184.2919              1186.8241
 Red. masses --      1.2809                 1.4682                 1.2193
 Frc consts  --      1.0552                 1.2133                 1.0119
 IR Inten    --      0.9597                 6.8685                12.3447

                     58                     59                     60
                      A                      A                      A
 Frequencies --   1218.6355              1222.4929              1254.1089
 Red. masses --      1.7957                 1.8252                 1.6500
 Frc consts  --      1.5712                 1.6072                 1.5290
 IR Inten    --      1.1653                 6.3302                 1.0258

                     61                     62                     63
                      A                      A                      A
 Frequencies --   1262.5079              1276.5748              1281.6262
 Red. masses --      2.2859                 1.9915                 2.0731
 Frc consts  --      2.1467                 1.9121                 2.0062
 IR Inten    --      1.3213                 3.3582                 2.3291

                     64                     65                     66
                      A                      A                      A
 Frequencies --   1314.5702              1322.1264              1349.4604
 Red. masses --      1.8123                 1.6922                 2.8138
 Frc consts  --      1.8452                 1.7428                 3.0190
 IR Inten    --      3.7547                22.1426                 5.3559

                     67                     68                     69
                      A                      A                      A
 Frequencies --   1382.1702              1390.5461              1444.4197
 Red. masses --      1.7446                 1.4403                 1.1206
 Frc consts  --      1.9637                 1.6409                 1.3774
 IR Inten    --      6.5288                31.3081                 0.9307

                     70                     71                     72
                      A                      A                      A
 Frequencies --   1447.4527              1452.2774              1460.2281
 Red. masses --      1.1602                 1.0928                 1.6327
 Frc consts  --      1.4322                 1.3580                 2.0512
 IR Inten    --      8.7343                 0.8140                38.7949

                     73                     74                     75
                      A                      A                      A
 Frequencies --   1466.7813              1471.9263              1478.9726
 Red. masses --      1.2982                 1.1654                 1.1781
 Frc consts  --      1.6456                 1.4876                 1.5183
 IR Inten    --     35.5953                 0.0879                 9.9747

                     76                     77                     78
                      A                      A                      A
 Frequencies --   1485.3823              1486.9246              1488.3784
 Red. masses --      1.0665                 1.0927                 1.0576
 Frc consts  --      1.3864                 1.4234                 1.3804
 IR Inten    --      1.2114                 3.3977                 1.1293

                     79                     80                     81
                      A                      A                      A
 Frequencies --   1489.3253              1500.2676              1500.6360
 Red. masses --      1.0771                 1.0657                 1.0676
 Frc consts  --      1.4077                 1.4132                 1.4165
 IR Inten    --      1.2311                 0.5165                24.0027

                     82                     83                     84
                      A                      A                      A
 Frequencies --   1506.4623              1508.2891              1509.9490
 Red. masses --      1.0609                 1.0594                 1.1147
 Frc consts  --      1.4185                 1.4199                 1.4974
 IR Inten    --     10.5517                28.5423                39.1931

                     85                     86                     87
                      A                      A                      A
 Frequencies --   1511.5090              1516.8666              1641.4295
 Red. masses --      1.0477                 2.3451                 7.4463
 Frc consts  --      1.4102                 3.1791                11.8204
 IR Inten    --     21.0953                 1.8906                 0.0003

                     88                     89                     90
                      A                      A                      A
 Frequencies --   1648.8959              2323.3969              2957.7673
 Red. masses --      6.0654                 1.0137                 1.0427
 Frc consts  --      9.7162                 3.2242                 5.3746
 IR Inten    --     74.1976               117.4183                97.4744

                     91                     92                     93
                      A                      A                      A
 Frequencies --   3019.3302              3029.6719              3030.4108
 Red. masses --      1.0850                 1.0461                 1.0461
 Frc consts  --      5.8280                 5.6576                 5.6601
 IR Inten    --     94.6889               146.1977                28.1750

                     94                     95                     96
                      A                      A                      A
 Frequencies --   3038.2607              3038.9853              3047.8912
 Red. masses --      1.0437                 1.0439                 1.1010
 Frc consts  --      5.6766                 5.6805                 6.0259
 IR Inten    --    102.3829                42.9561               121.0538

                     97                     98                     99
                      A                      A                      A
 Frequencies --   3051.5024              3052.4251              3100.3763
 Red. masses --      1.0596                 1.0592                 1.1049
 Frc consts  --      5.8133                 5.8148                 6.2576
 IR Inten    --    155.1669                11.8208                12.3347

                    100                    101                    102
                      A                      A                      A
 Frequencies --   3100.5215              3132.0186              3132.0253
 Red. masses --      1.1049                 1.0930                 1.0929
 Frc consts  --      6.2583                 6.3172                 6.3168
 IR Inten    --     27.0064                30.6347                 8.2126

                    103                    104                    105
                      A                      A                      A
 Frequencies --   3133.6535              3133.7846              3173.6656
 Red. masses --      1.0885                 1.0885                 1.0890
 Frc consts  --      6.2975                 6.2983                 6.4626
 IR Inten    --     21.2976                14.4178                19.7184

                    106                    107                    108
                      A                      A                      A
 Frequencies --   3173.7689              3173.8255              3176.7107
 Red. masses --      1.1059                 1.1040                 1.1046
 Frc consts  --      6.5634                 6.5522                 6.5679
 IR Inten    --      0.7502                15.1154                 3.8516

                    109                    110                    111
                      A                      A                      A
 Frequencies --   3176.7361              3178.3564              3207.9453
 Red. masses --      1.1046                 1.0911                 1.0951
 Frc consts  --      6.5680                 6.4941                 6.6400
 IR Inten    --     26.8481                43.0500                46.8774

 - Thermochemistry -
 -------------------
 Temperature   298.150 Kelvin.  Pressure   1.00000 Atm.
 Atom     1 has atomic number  6 and mass  12.00000

 Molecular mass:   400.14942 amu.
 Principal axes and moments of inertia in atomic units:
                           1         2         3
     Eigenvalues --  3470.735253736.270836332.15542
           X            0.99994  -0.00018  -0.01062
           Y            0.00018   1.00000  -0.00000
           Z            0.01062   0.00000   0.99994
 This molecule is an asymmetric top.
 Rotational symmetry number  1.
 Warning -- assumption of classical behavior for rotation
           may cause significant error
 Rotational temperatures (Kelvin)      0.02496     0.02318     0.01368
 Rotational constants (GHZ):           0.51999     0.48303     0.28501
 Zero-point vibrational energy     898268.7 (Joules/Mol)
                                  214.69137 (Kcal/Mol)
 Warning -- explicit consideration of  30 degrees of freedom as
           vibrations may cause significant error
 Vibrational temperatures:     95.34   110.99   115.40   195.80   265.81
          (Kelvin)            274.29   297.38   316.08   328.72   330.47
                              354.56   373.79   397.34   403.44   423.26
                              425.93   464.19   467.04   508.70   559.81
                              600.02   625.00   631.51   684.08   719.52
                              722.60   745.23   757.36   764.80   768.92
                              925.85   949.79   955.76   976.51  1077.64
                             1113.69  1129.05  1166.68  1253.21  1276.52
                             1342.47  1407.19  1411.68  1428.50  1429.70
                             1459.49  1495.03  1515.14  1515.18  1538.32
                             1624.68  1630.17  1633.64  1699.36  1701.26
                             1703.93  1707.58  1753.34  1758.89  1804.38
                             1816.47  1836.71  1843.97  1891.37  1902.25
                             1941.57  1988.63  2000.69  2078.20  2082.56
                             2089.50  2100.94  2110.37  2117.77  2127.91
                             2137.13  2139.35  2141.44  2142.81  2158.55
                             2159.08  2167.46  2170.09  2172.48  2174.72
                             2182.43  2361.65  2372.39  3342.85  4255.57
                             4344.14  4359.02  4360.09  4371.38  4372.42
                             4385.24  4390.43  4391.76  4460.75  4460.96
                             4506.28  4506.29  4508.63  4508.82  4566.20
                             4566.35  4566.43  4570.58  4570.61  4572.95
                             4615.52

 Zero-point correction=                           0.342132 (Hartree/Particle)
 Thermal correction to Energy=                    0.359481
 Thermal correction to Enthalpy=                  0.360425
 Thermal correction to Gibbs Free Energy=         0.298924
 Sum of electronic and zero-point Energies=           -722.840856
 Sum of electronic and thermal Energies=              -722.823508
 Sum of electronic and thermal Enthalpies=            -722.822564
 Sum of electronic and thermal Free Energies=         -722.884065

                     E (Thermal)             CV                S
                      KCal/Mol        Cal/Mol-Kelvin    Cal/Mol-Kelvin
 Total                  225.578             70.026            129.441
 Electronic               0.000              0.000              0.000
 Translational            0.889              2.981             43.851
 Rotational               0.889              2.981             32.773
 Vibrational            223.800             64.064             52.816
 Vibration     1          0.598              1.970              4.261
 Vibration     2          0.599              1.964              3.962
 Vibration     3          0.600              1.963              3.886
 Vibration     4          0.614              1.917              2.858
 Vibration     5          0.631              1.861              2.280
 Vibration     6          0.634              1.853              2.222
 Vibration     7          0.641              1.830              2.073
 Vibration     8          0.647              1.811              1.962
 Vibration     9          0.651              1.798              1.891
 Vibration    10          0.652              1.796              1.881
 Vibration    11          0.661              1.769              1.756
 Vibration    12          0.668              1.746              1.663
 Vibration    13          0.678              1.717              1.557
 Vibration    14          0.680              1.710              1.531
 Vibration    15          0.689              1.685              1.450
 Vibration    16          0.690              1.681              1.439
 Vibration    17          0.708              1.630              1.297
 Vibration    18          0.709              1.626              1.287
 Vibration    19          0.730              1.568              1.150
 Vibration    20          0.757              1.494              1.004
 Vibration    21          0.780              1.433              0.902
 Vibration    22          0.795              1.395              0.844
 Vibration    23          0.799              1.385              0.830
 Vibration    24          0.832              1.304              0.722
 Vibration    25          0.856              1.250              0.658
 Vibration    26          0.858              1.245              0.653
 Vibration    27          0.873              1.210              0.615
 Vibration    28          0.881              1.192              0.595
 Vibration    29          0.887              1.180              0.584
 Vibration    30          0.889              1.174              0.577

 Optimization completed.
    -- Stationary point found.
 Normal termination of Gaussian 16 at Fri Mar  8 09:49:24 2024.
