 Gaussian 16, Revision C.01,
 Gaussian 16:  ES64L-G16RevC.01  3-Jul-2019

 ----------------------------------------------------------
 # wb97xd def2TZVPP SCRF=(solvent=dichloromethane) opt freq
 ----------------------------------------------------------

 ------------
 YIrMeH_sigma
 ------------
 Symbolic Z-matrix:
 Charge =  0 Multiplicity = 1

 SCF Done:  E(RwB97XD) =  -723.177674898     A.U. after   17 cycles
 SCF Done:  E(RwB97XD) =  -723.182998313     A.U. after   13 cycles
 SCF Done:  E(RwB97XD) =  -723.183517654     A.U. after   13 cycles
 SCF Done:  E(RwB97XD) =  -723.183868025     A.U. after   13 cycles
 SCF Done:  E(RwB97XD) =  -723.183982433     A.U. after   13 cycles
 SCF Done:  E(RwB97XD) =  -723.184064197     A.U. after   11 cycles
 SCF Done:  E(RwB97XD) =  -723.184105853     A.U. after   11 cycles
 SCF Done:  E(RwB97XD) =  -723.184107779     A.U. after   11 cycles
 SCF Done:  E(RwB97XD) =  -723.184108920     A.U. after   10 cycles
 SCF Done:  E(RwB97XD) =  -723.184109170     A.U. after    8 cycles
 SCF Done:  E(RwB97XD) =  -723.184111482     A.U. after   10 cycles
 SCF Done:  E(RwB97XD) =  -723.184112108     A.U. after   10 cycles
 SCF Done:  E(RwB97XD) =  -723.184111513     A.U. after   10 cycles
 SCF Done:  E(RwB97XD) =  -723.182410754     A.U. after   15 cycles
 SCF Done:  E(RwB97XD) =  -723.184113363     A.U. after   10 cycles
 SCF Done:  E(RwB97XD) =  -723.184113542     A.U. after   11 cycles
 SCF Done:  E(RwB97XD) =  -723.184116477     A.U. after   10 cycles
 SCF Done:  E(RwB97XD) =  -723.184117385     A.U. after   10 cycles
 SCF Done:  E(RwB97XD) =  -723.184117607     A.U. after    8 cycles
 Optimization completed.
    -- Stationary point found.
 Normal termination of Gaussian 16 at Fri Mar  8 02:14:23 2024.

 ----------------------------------------------------------------------
 #N Geom=AllCheck Guess=TCheck SCRF=Check GenChk RwB97XD/def2TZVPP Freq
 ----------------------------------------------------------------------

 Structure from the checkpoint file:  "YIrMeH_sigma.chk"
 ------------
 YIrMeH_sigma
 ------------
 Charge =  0 Multiplicity = 1

                         Standard orientation:
 ---------------------------------------------------------------------
 Center     Atomic      Atomic             Coordinates (Angstroms)
 Number     Number       Type             X           Y           Z
 ---------------------------------------------------------------------
      1          6           0        1.923423    1.210756   -0.107469
      2          6           0        1.922633   -1.211938   -0.107517
      3          6           0        3.304963    1.211278    0.003066
      4          6           0        3.304173   -1.213362    0.003018
      5          6           0        3.991945   -0.001267    0.079299
      6          1           0        3.859604    2.143336    0.019041
      7          1           0        3.858209   -2.145780    0.018958
      8          6           0        1.044355    2.401741   -0.369277
      9          1           0        1.016764    2.583242   -1.445016
     10          1           0        1.393352    3.322619    0.107641
     11          6           0        1.042789   -2.402345   -0.369353
     12          1           0        1.015037   -2.583771   -1.445098
     13          1           0        1.391217   -3.323471    0.107502
     14          7           0       -0.374082    2.124756    0.052141
     15          7           0       -0.375459   -2.124469    0.052149
     16          6           0       -3.273243    0.000695    0.025800
     17          1           0       -2.668998    0.000360    0.947861
     18          1           0       -3.889830    0.895661    0.010130
     19          1           0       -3.889861   -0.894240    0.009636
     20          6           0       -1.281627    2.951709   -0.758630
     21          1           0       -2.302605    2.807453   -0.411332
     22          1           0       -1.025168    4.013483   -0.673494
     23          1           0       -1.215465    2.644542   -1.799428
     24          6           0       -0.520886    2.524767    1.467002
     25          1           0       -0.351951    3.602070    1.575295
     26          1           0       -1.522771    2.283903    1.814538
     27          1           0        0.201639    1.984624    2.073238
     28          6           0       -1.283586   -2.950838   -0.758571
     29          1           0       -1.027802   -4.012778   -0.673462
     30          1           0       -2.304451   -2.805930   -0.411204
     31          1           0       -1.217293   -2.643699   -1.799369
     32          6           0       -0.522432   -2.524404    1.467013
     33          1           0       -1.524149   -2.282925    1.814609
     34          1           0       -0.354162   -3.601811    1.575285
     35          1           0        0.200457   -1.984711    2.073216
     36          1           0       -2.633183    0.000916   -0.884196
     37         77           0       -0.676511    0.000233   -0.081427
     38          1           0        5.069892   -0.001621    0.176272
     39          6           0        1.224101   -0.000362   -0.114508
 ---------------------------------------------------------------------

 SCF Done:  E(RwB97XD) =  -723.184117608     A.U. after    1 cycles

 The electronic state is 1-A.
 Alpha  occ. eigenvalues --  -14.48662 -14.48661 -10.31259 -10.31259 -10.30668
 Alpha  occ. eigenvalues --  -10.30668 -10.30507 -10.30507 -10.27774 -10.27203
 Alpha  occ. eigenvalues --  -10.27202 -10.26917 -10.26917 -10.26565 -10.25307
 Alpha  occ. eigenvalues --   -3.70474  -2.04687  -2.04352  -2.01799  -1.05085
 Alpha  occ. eigenvalues --   -1.04705  -0.94325  -0.87033  -0.84633  -0.81389
 Alpha  occ. eigenvalues --   -0.81388  -0.80860  -0.78554  -0.78011  -0.71740
 Alpha  occ. eigenvalues --   -0.70675  -0.66249  -0.66083  -0.60036  -0.58075
 Alpha  occ. eigenvalues --   -0.57430  -0.57190  -0.56563  -0.55385  -0.55097
 Alpha  occ. eigenvalues --   -0.52575  -0.51071  -0.50561  -0.49948  -0.49574
 Alpha  occ. eigenvalues --   -0.49283  -0.48797  -0.47975  -0.47537  -0.46907
 Alpha  occ. eigenvalues --   -0.46355  -0.45687  -0.45512  -0.45175  -0.43813
 Alpha  occ. eigenvalues --   -0.42355  -0.41342  -0.40088  -0.36183  -0.36113
 Alpha  occ. eigenvalues --   -0.33106  -0.30892  -0.25864  -0.24336  -0.23263
 Alpha  occ. eigenvalues --   -0.22231
 Alpha virt. eigenvalues --    0.05823   0.06892   0.09656   0.11164   0.11826
 Alpha virt. eigenvalues --    0.11956   0.12358   0.14546   0.15480   0.15866
 Alpha virt. eigenvalues --    0.15981   0.16046   0.16756   0.16790   0.17087

 Mulliken charges:
               1
     1  C    0.062809
     2  C    0.062845
     3  C   -0.284271
     4  C   -0.284264
     5  C   -0.112788
     6  H    0.111061
     7  H    0.111061
     8  C   -0.068527
     9  H    0.100383
    10  H    0.098625
    11  C   -0.068542
    12  H    0.100388
    13  H    0.098625
    14  N   -0.035766
    15  N   -0.035754
    16  C   -0.348642
    17  H    0.094872
    18  H    0.106632
    19  H    0.106616
    20  C   -0.186134
    21  H    0.100255
    22  H    0.106065
    23  H    0.107969
    24  C   -0.210982
    25  H    0.097224
    26  H    0.105624
    27  H    0.122086
    28  C   -0.186145
    29  H    0.106069
    30  H    0.100257
    31  H    0.107976
    32  C   -0.210976
    33  H    0.105621
    34  H    0.097226
    35  H    0.122086
    36  H    0.085304
    37  Ir  -0.286659
    38  H    0.124999
    39  C   -0.223228
 Sum of Mulliken charges =  -0.00000

 Dipole moment (field-independent basis, Debye):
    X=             -4.2649    Y=              0.0011    Z=              1.0435  Tot=              4.3907
 Quadrupole moment (field-independent basis, Debye-Ang):
   XX=           -117.6289   YY=            -93.1117   ZZ=           -120.0130
   XY=              0.0082   XZ=             -0.9343   YZ=              0.0003

  Exact polarizability:     366.956      -0.017     303.334       7.378       0.002     227.759
 Approx polarizability:     290.128      -0.012     249.638       3.502      -0.000     210.950

                      1                      2                      3
                      A                      A                      A
 Frequencies --     49.6120                62.4362                78.1648
 Red. masses --      3.3468                 2.8942                 3.8770
 Frc consts  --      0.0049                 0.0066                 0.0140
 IR Inten    --      0.0118                 0.5344                 8.9885

                      4                      5                      6
                      A                      A                      A
 Frequencies --    119.3311               127.6937               173.4303
 Red. masses --      3.0658                 2.8238                 1.0402
 Frc consts  --      0.0257                 0.0271                 0.0184
 IR Inten    --      6.0465                 0.9763                 0.1604

                      7                      8                      9
                      A                      A                      A
 Frequencies --    184.6370               206.4109               217.4268
 Red. masses --      3.7818                 2.7267                 3.6046
 Frc consts  --      0.0760                 0.0684                 0.1004
 IR Inten    --      5.3890                 0.2394                 2.1130

                     10                     11                     12
                      A                      A                      A
 Frequencies --    220.3534               233.3116               245.9594
 Red. masses --      3.4628                 3.8434                 3.6813
 Frc consts  --      0.0991                 0.1233                 0.1312
 IR Inten    --      3.3723                 7.6816                 0.2915

                     13                     14                     15
                      A                      A                      A
 Frequencies --    263.0404               274.8091               277.7734
 Red. masses --      3.4564                 2.6200                 2.8124
 Frc consts  --      0.1409                 0.1166                 0.1279
 IR Inten    --      0.9268                 1.1429                 5.3064

                     16                     17                     18
                      A                      A                      A
 Frequencies --    296.9481               297.6580               320.1187
 Red. masses --      1.1448                 1.1730                 1.3062
 Frc consts  --      0.0595                 0.0612                 0.0789
 IR Inten    --      0.5701                 0.6340                 0.0670

                     19                     20                     21
                      A                      A                      A
 Frequencies --    323.8734               344.2056               363.7985
 Red. masses --      1.0844                 1.6137                 1.0522
 Frc consts  --      0.0670                 0.1126                 0.0821
 IR Inten    --      1.0151                 3.1542                 4.7501

                     22                     23                     24
                      A                      A                      A
 Frequencies --    368.7932               393.6642               418.8178
 Red. masses --      1.4027                 3.4353                 2.4269
 Frc consts  --      0.1124                 0.3137                 0.2508
 IR Inten    --      0.5351                 0.0091                 1.3474

                     25                     26                     27
                      A                      A                      A
 Frequencies --    434.5493               478.2295               497.0768
 Red. masses --      2.1750                 2.7248                 3.4501
 Frc consts  --      0.2420                 0.3672                 0.5023
 IR Inten    --      2.5887                 1.2681                 1.7890

                     28                     29                     30
                      A                      A                      A
 Frequencies --    512.6384               518.1929               529.2351
 Red. masses --      3.1758                 3.0452                 2.7455
 Frc consts  --      0.4917                 0.4818                 0.4531
 IR Inten    --      3.0650                 0.6281                18.3879

                     31                     32                     33
                      A                      A                      A
 Frequencies --    534.2222               644.6565               663.0959
 Red. masses --      3.2805                 5.2725                 4.4481
 Frc consts  --      0.5516                 1.2910                 1.1523
 IR Inten    --      1.1156                 2.5453                 5.5457

                     34                     35                     36
                      A                      A                      A
 Frequencies --    737.3133               770.1448               804.6828
 Red. masses --      3.4416                 1.4257                 3.8978
 Frc consts  --      1.1023                 0.4982                 1.4870
 IR Inten    --     19.7367                55.3630                29.8433

                     37                     38                     39
                      A                      A                      A
 Frequencies --    872.1290               883.7431               928.4793
 Red. masses --      3.4919                 3.8178                 1.4328
 Frc consts  --      1.5649                 1.7568                 0.7278
 IR Inten    --     60.6891                 9.3679                11.1858

                     40                     41                     42
                      A                      A                      A
 Frequencies --    973.4639               984.4187               990.2313
 Red. masses --      1.4967                 2.1507                 1.8403
 Frc consts  --      0.8356                 1.2280                 1.0632
 IR Inten    --      1.0551                 3.0836                16.7729

                     43                     44                     45
                      A                      A                      A
 Frequencies --    995.0260              1012.8325              1035.0864
 Red. masses --      2.9340                 2.2933                 2.7165
 Frc consts  --      1.7115                 1.3861                 1.7148
 IR Inten    --     20.7939                34.0065                22.7149

                     46                     47                     48
                      A                      A                      A
 Frequencies --   1049.0258              1049.1991              1071.0011
 Red. masses --      1.6150                 1.5921                 2.7450
 Frc consts  --      1.0471                 1.0326                 1.8551
 IR Inten    --      0.0163                14.7303                81.1467

                     49                     50                     51
                      A                      A                      A
 Frequencies --   1129.2246              1132.0828              1138.3329
 Red. masses --      1.2655                 1.2829                 2.7841
 Frc consts  --      0.9508                 0.9687                 2.1256
 IR Inten    --      1.4662                 4.1002                58.9625

                     52                     53                     54
                      A                      A                      A
 Frequencies --   1178.7177              1180.1777              1181.1173
 Red. masses --      1.4832                 1.2844                 1.5142
 Frc consts  --      1.2142                 1.0540                 1.2446
 IR Inten    --      0.4782                 2.4894                 6.8957

                     55                     56                     57
                      A                      A                      A
 Frequencies --   1212.7186              1215.8133              1248.9999
 Red. masses --      1.7754                 1.7952                 1.6282
 Frc consts  --      1.5384                 1.5635                 1.4966
 IR Inten    --      0.8272                 4.2025                 0.6304

                     58                     59                     60
                      A                      A                      A
 Frequencies --   1260.7198              1260.8029              1274.2554
 Red. masses --      2.2763                 1.1904                 2.0196
 Frc consts  --      2.1316                 1.1149                 1.9321
 IR Inten    --      6.2192                10.5717                 2.4201

                     61                     62                     63
                      A                      A                      A
 Frequencies --   1279.4066              1313.0070              1321.2221
 Red. masses --      2.1008                 1.7905                 1.7212
 Frc consts  --      2.0260                 1.8187                 1.7703
 IR Inten    --      8.3192                 6.1411                33.2214

                     64                     65                     66
                      A                      A                      A
 Frequencies --   1341.1076              1348.0553              1375.1300
 Red. masses --      1.1537                 3.0141                 1.7271
 Frc consts  --      1.2225                 3.2272                 1.9242
 IR Inten    --     74.3843                 9.5538                74.1237

                     67                     68                     69
                      A                      A                      A
 Frequencies --   1384.1193              1388.4637              1444.2744
 Red. masses --      1.1886                 1.4293                 1.1568
 Frc consts  --      1.3416                 1.6234                 1.4217
 IR Inten    --     49.4103                35.9223                 0.0076

                     70                     71                     72
                      A                      A                      A
 Frequencies --   1444.3567              1457.4675              1469.3057
 Red. masses --      1.1589                 1.9860                 1.1660
 Frc consts  --      1.4244                 2.4855                 1.4831
 IR Inten    --     13.9184               101.8528                 0.0242

                     73                     74                     75
                      A                      A                      A
 Frequencies --   1473.8936              1484.1317              1484.8212
 Red. masses --      1.2925                 1.0621                 1.0688
 Frc consts  --      1.6543                 1.3784                 1.3884
 IR Inten    --     33.6771                 0.1587                 3.3513

                     76                     77                     78
                      A                      A                      A
 Frequencies --   1485.6020              1487.2193              1491.8821
 Red. masses --      1.0477                 1.0637                 1.0273
 Frc consts  --      1.3623                 1.3862                 1.3471
 IR Inten    --      0.0575                 2.8499                 0.0627

                     79                     80                     81
                      A                      A                      A
 Frequencies --   1500.7692              1501.1774              1503.0388
 Red. masses --      1.0982                 1.0773                 1.0682
 Frc consts  --      1.4574                 1.4303                 1.4218
 IR Inten    --     14.5899                24.3912                 5.4988

                     82                     83                     84
                      A                      A                      A
 Frequencies --   1503.9629              1507.8370              1507.9065
 Red. masses --      1.0571                 1.0434                 1.0640
 Frc consts  --      1.4087                 1.3976                 1.4254
 IR Inten    --     53.2387                11.5970                30.1863

                     85                     86                     87
                      A                      A                      A
 Frequencies --   1515.2129              1608.1417              1627.3027
 Red. masses --      2.4144                 1.0305                 7.0641
 Frc consts  --      3.2659                 1.5702                11.0215
 IR Inten    --      1.3034               189.0445                 0.0837

                     88                     89                     90
                      A                      A                      A
 Frequencies --   1647.9183              2822.4236              2972.3090
 Red. masses --      5.4039                 1.0523                 1.0777
 Frc consts  --      8.6463                 4.9388                 5.6098
 IR Inten    --     86.9928                24.7334                 5.6764

                     91                     92                     93
                      A                      A                      A
 Frequencies --   3017.5778              3017.8213              3020.9081
 Red. masses --      1.0488                 1.0486                 1.0478
 Frc consts  --      5.6266                 5.6264                 5.6338
 IR Inten    --     69.7724                63.7677               255.2806

                     94                     95                     96
                      A                      A                      A
 Frequencies --   3022.1932              3042.9611              3043.8154
 Red. masses --      1.0479                 1.0617                 1.0615
 Frc consts  --      5.6394                 5.7920                 5.7942
 IR Inten    --     19.4769               189.4384                13.6264

                     97                     98                     99
                      A                      A                      A
 Frequencies --   3094.7841              3094.8981              3124.2696
 Red. masses --      1.1022                 1.1023                 1.0729
 Frc consts  --      6.2198                 6.2206                 6.1705
 IR Inten    --      4.6910                30.5591                43.0871

                    100                    101                    102
                      A                      A                      A
 Frequencies --   3125.4327              3125.4565              3128.8227
 Red. masses --      1.0870                 1.0868                 1.0851
 Frc consts  --      6.2558                 6.2552                 6.2585
 IR Inten    --      5.8779                 9.3461                50.1275

                    103                    104                    105
                      A                      A                      A
 Frequencies --   3128.8874              3166.8612              3166.9611
 Red. masses --      1.0850                 1.1056                 1.1056
 Frc consts  --      6.2581                 6.5329                 6.5333
 IR Inten    --     10.8418                 0.8887                28.8292

                    106                    107                    108
                      A                      A                      A
 Frequencies --   3169.7545              3171.9616              3171.9778
 Red. masses --      1.0868                 1.1056                 1.1056
 Frc consts  --      6.4333                 6.5537                 6.5538
 IR Inten    --     16.7351                 6.2747                23.7184

                    109                    110                    111
                      A                      A                      A
 Frequencies --   3174.3659              3180.0907              3205.0302
 Red. masses --      1.0909                 1.1052                 1.0951
 Frc consts  --      6.4765                 6.5853                 6.6277
 IR Inten    --     51.0053                15.1415                50.9237

 - Thermochemistry -
 -------------------
 Temperature   298.150 Kelvin.  Pressure   1.00000 Atm.
 Atom     1 has atomic number  6 and mass  12.00000

 Molecular mass:   400.14942 amu.
 Principal axes and moments of inertia in atomic units:
                           1         2         3
     Eigenvalues --  3412.432193871.412716537.06740
           X            1.00000   0.00015  -0.00217
           Y           -0.00015   1.00000   0.00000
           Z            0.00217  -0.00000   1.00000
 This molecule is an asymmetric top.
 Rotational symmetry number  1.
 Warning -- assumption of classical behavior for rotation
           may cause significant error
 Rotational temperatures (Kelvin)      0.02538     0.02237     0.01325
 Rotational constants (GHZ):           0.52887     0.46617     0.27608
 Zero-point vibrational energy     905155.6 (Joules/Mol)
                                  216.33738 (Kcal/Mol)
 Warning -- explicit consideration of  31 degrees of freedom as
           vibrations may cause significant error
 Vibrational temperatures:     71.38    89.83   112.46   171.69   183.72
          (Kelvin)            249.53   265.65   296.98   312.83   317.04
                              335.68   353.88   378.46   395.39   399.65
                              427.24   428.26   460.58   465.98   495.24
                              523.42   530.61   566.39   602.59   625.22
                              688.07   715.18   737.57   745.56   761.45
                              768.63   927.52   954.05  1060.83  1108.07
                             1157.76  1254.80  1271.51  1335.87  1400.60
                             1416.36  1424.72  1431.62  1457.24  1489.26
                             1509.31  1509.56  1540.93  1624.70  1628.81
                             1637.81  1695.91  1698.01  1699.36  1744.83
                             1749.28  1797.03  1813.89  1814.01  1833.37
                             1840.78  1889.12  1900.94  1929.55  1939.55
                             1978.51  1991.44  1997.69  2077.99  2078.11
                             2096.97  2114.00  2120.60  2135.33  2136.33
                             2137.45  2139.78  2146.49  2159.27  2159.86
                             2162.54  2163.87  2169.44  2169.54  2180.05
                             2313.76  2341.33  2370.99  4060.84  4276.49
                             4341.62  4341.97  4346.41  4348.26  4378.14
                             4379.37  4452.70  4452.87  4495.13  4496.80
                             4496.83  4501.68  4501.77  4556.41  4556.55
                             4560.57  4563.75  4563.77  4567.20  4575.44
                             4611.32

 Zero-point correction=                           0.344756 (Hartree/Particle)
 Thermal correction to Energy=                    0.362820
 Thermal correction to Enthalpy=                  0.363764
 Thermal correction to Gibbs Free Energy=         0.300139
 Sum of electronic and zero-point Energies=           -722.839362
 Sum of electronic and thermal Energies=              -722.821298
 Sum of electronic and thermal Enthalpies=            -722.820354
 Sum of electronic and thermal Free Energies=         -722.883979

                     E (Thermal)             CV                S
                      KCal/Mol        Cal/Mol-Kelvin    Cal/Mol-Kelvin
 Total                  227.673             70.302            133.910
 Electronic               0.000              0.000              0.000
 Translational            0.889              2.981             43.851
 Rotational               0.889              2.981             32.824
 Vibrational            225.895             64.341             57.235
 Vibration     1          0.595              1.978              4.833
 Vibration     2          0.597              1.972              4.379
 Vibration     3          0.599              1.964              3.936
 Vibration     4          0.609              1.933              3.111
 Vibration     5          0.611              1.925              2.980
 Vibration     6          0.627              1.875              2.398
 Vibration     7          0.631              1.861              2.281
 Vibration     8          0.641              1.831              2.075
 Vibration     9          0.646              1.815              1.980
 Vibration    10          0.647              1.810              1.956
 Vibration    11          0.654              1.790              1.853
 Vibration    12          0.660              1.769              1.759
 Vibration    13          0.670              1.741              1.642
 Vibration    14          0.677              1.720              1.566
 Vibration    15          0.679              1.715              1.547
 Vibration    16          0.691              1.679              1.434
 Vibration    17          0.691              1.678              1.430
 Vibration    18          0.706              1.635              1.309
 Vibration    19          0.708              1.628              1.290
 Vibration    20          0.723              1.587              1.193
 Vibration    21          0.737              1.547              1.106
 Vibration    22          0.741              1.536              1.085
 Vibration    23          0.761              1.484              0.986
 Vibration    24          0.782              1.429              0.896
 Vibration    25          0.795              1.395              0.844
 Vibration    26          0.835              1.298              0.715
 Vibration    27          0.853              1.256              0.665
 Vibration    28          0.868              1.222              0.627
 Vibration    29          0.873              1.210              0.614
 Vibration    30          0.884              1.185              0.589
 Vibration    31          0.889              1.174              0.578

 Optimization completed.
    -- Stationary point found.
 Normal termination of Gaussian 16 at Fri Mar  8 14:12:48 2024.
