 Gaussian 16, Revision C.01,
 Gaussian 16:  ES64L-G16RevC.01  3-Jul-2019

 ----------------------------------------------------------
 # wb97xd def2TZVPP SCRF=(solvent=dichloromethane) opt freq
 ----------------------------------------------------------

 ---
 YRh
 ---
 Symbolic Z-matrix:
 Charge =  0 Multiplicity = 1

 SCF Done:  E(RwB97XD) =  -688.839915641     A.U. after   18 cycles
 SCF Done:  E(RwB97XD) =  -688.844351287     A.U. after   15 cycles
 SCF Done:  E(RwB97XD) =  -688.844647168     A.U. after   13 cycles
 SCF Done:  E(RwB97XD) =  -688.844712046     A.U. after   13 cycles
 SCF Done:  E(RwB97XD) =  -688.844718637     A.U. after   10 cycles
 SCF Done:  E(RwB97XD) =  -688.844720752     A.U. after   10 cycles
 SCF Done:  E(RwB97XD) =  -688.844721110     A.U. after    9 cycles
 Optimization completed.
    -- Stationary point found.
 Normal termination of Gaussian 16 at Thu Mar  7 16:22:03 2024.

 ----------------------------------------------------------------------
 #N Geom=AllCheck Guess=TCheck SCRF=Check GenChk RwB97XD/def2TZVPP Freq
 ----------------------------------------------------------------------

 Structure from the checkpoint file:  "YRh.chk"
 ---
 YRh
 ---
 Charge =  0 Multiplicity = 1

                         Standard orientation:
 ---------------------------------------------------------------------
 Center     Atomic      Atomic             Coordinates (Angstroms)
 Number     Number       Type             X           Y           Z
 ---------------------------------------------------------------------
      1          6           0       -1.547117   -0.123319    1.211043
      2          6           0       -1.547117   -0.123319   -1.211043
      3          6           0       -2.928577    0.003110    1.211167
      4          6           0       -2.928577    0.003110   -1.211167
      5          6           0       -3.615491    0.084457   -0.000000
      6          1           0       -3.481156    0.029768    2.144277
      7          1           0       -3.481156    0.029768   -2.144277
      8          6           0       -0.678519   -0.377240    2.412213
      9          1           0       -0.658911   -1.451288    2.605874
     10          1           0       -1.040155    0.109497    3.325103
     11          6           0       -0.678519   -0.377240   -2.412213
     12          1           0       -0.658911   -1.451288   -2.605874
     13          1           0       -1.040155    0.109497   -3.325103
     14          7           0        0.731200    0.037347    2.136451
     15          7           0        0.731200    0.037347   -2.136451
     16          6           0        1.652695   -0.754876    2.957528
     17          1           0        2.673120   -0.422630    2.772115
     18          1           0        1.434683   -0.639604    4.026807
     19          1           0        1.570414   -1.804697    2.685154
     20          6           0        0.882073    1.459282    2.489130
     21          1           0        0.730359    1.606360    3.566317
     22          1           0        1.879511    1.802374    2.222147
     23          1           0        0.151091    2.049203    1.941813
     24          6           0        1.652695   -0.754876   -2.957528
     25          1           0        1.434683   -0.639604   -4.026807
     26          1           0        2.673120   -0.422630   -2.772115
     27          1           0        1.570414   -1.804697   -2.685154
     28          6           0        0.882073    1.459282   -2.489130
     29          1           0        1.879511    1.802374   -2.222147
     30          1           0        0.730359    1.606360   -3.566317
     31          1           0        0.151091    2.049203   -1.941813
     32          6           0       -0.850585   -0.142324   -0.000000
     33          1           0       -4.692362    0.193508   -0.000000
     34         45           0        1.025943   -0.120236    0.000000
 ---------------------------------------------------------------------

 SCF Done:  E(RwB97XD) =  -688.844721110     A.U. after    1 cycles

 The electronic state is 1-A'.
 Alpha  occ. eigenvalues --  -14.47387 -14.47387 -10.31010 -10.31009 -10.30494
 Alpha  occ. eigenvalues --  -10.30494 -10.30283 -10.30283 -10.27198 -10.27196
 Alpha  occ. eigenvalues --  -10.26962 -10.26961 -10.26655 -10.25409  -3.24354
 Alpha  occ. eigenvalues --   -2.00858  -2.00137  -1.97661  -1.04533  -1.04258
 Alpha  occ. eigenvalues --   -0.94285  -0.86896  -0.84498  -0.81123  -0.81113
 Alpha  occ. eigenvalues --   -0.78438  -0.77992  -0.71160  -0.70291  -0.65988
 Alpha  occ. eigenvalues --   -0.65856  -0.59364  -0.57773  -0.57144  -0.56872
 Alpha  occ. eigenvalues --   -0.56274  -0.54941  -0.54806  -0.52379  -0.49852
 Alpha  occ. eigenvalues --   -0.49512  -0.49206  -0.47942  -0.47542  -0.46784
 Alpha  occ. eigenvalues --   -0.46145  -0.45489  -0.45296  -0.45039  -0.43653
 Alpha  occ. eigenvalues --   -0.42284  -0.40061  -0.39160  -0.35401  -0.34902
 Alpha  occ. eigenvalues --   -0.32859  -0.30837  -0.25789  -0.24154  -0.22695
 Alpha  occ. eigenvalues --   -0.22067
 Alpha virt. eigenvalues --    0.05741   0.05845   0.06901   0.09651   0.10105
 Alpha virt. eigenvalues --    0.10903   0.11674   0.14209   0.15311   0.15523
 Alpha virt. eigenvalues --    0.15982   0.16065   0.16861   0.17088   0.17784

 Mulliken charges:
               1
     1  C   -0.076056
     2  C   -0.076056
     3  C   -0.222183
     4  C   -0.222183
     5  C   -0.147298
     6  H    0.112623
     7  H    0.112623
     8  C   -0.062635
     9  H    0.100667
    10  H    0.096662
    11  C   -0.062635
    12  H    0.100667
    13  H    0.096662
    14  N   -0.082938
    15  N   -0.082938
    16  C   -0.174171
    17  H    0.103580
    18  H    0.098618
    19  H    0.101613
    20  C   -0.166744
    21  H    0.088813
    22  H    0.101797
    23  H    0.117480
    24  C   -0.174171
    25  H    0.098618
    26  H    0.103580
    27  H    0.101613
    28  C   -0.166744
    29  H    0.101797
    30  H    0.088813
    31  H    0.117480
    32  C    0.095424
    33  H    0.124630
    34  Rh  -0.347015
 Sum of Mulliken charges =  -0.00000

 Dipole moment (field-independent basis, Debye):
    X=              4.1490    Y=              1.0097    Z=             -0.0000  Tot=              4.2701
 Quadrupole moment (field-independent basis, Debye-Ang):
   XX=           -104.2172   YY=           -108.7733   ZZ=            -85.0722
   XY=              1.0415   XZ=             -0.0000   YZ=              0.0000

  Exact polarizability:     321.994      -8.119     219.501      -0.000       0.000     285.768
 Approx polarizability:     251.564      -4.042     188.225       0.000       0.000     226.890

                      1                      2                      3
                     A"                     A'                     A'
 Frequencies --     61.5448                70.2276               105.3912
 Red. masses --      2.9093                 3.7818                 3.2108
 Frc consts  --      0.0065                 0.0110                 0.0210
 IR Inten    --      0.6226                 4.5105                 0.0416

                      4                      5                      6
                     A'                     A"                     A'
 Frequencies --    160.9942               177.6229               203.2138
 Red. masses --      3.3359                 2.9655                 4.0139
 Frc consts  --      0.0509                 0.0551                 0.0977
 IR Inten    --      5.0961                 0.9573                28.3990

                      7                      8                      9
                     A"                     A"                     A'
 Frequencies --    207.6371               237.8950               243.0815
 Red. masses --      3.1624                 3.4759                 3.8429
 Frc consts  --      0.0803                 0.1159                 0.1338
 IR Inten    --      2.0488                 0.1094                 0.1948

                     10                     11                     12
                     A"                     A'                     A"
 Frequencies --    266.9910               277.5894               283.6545
 Red. masses --      4.4835                 3.1755                 1.0889
 Frc consts  --      0.1883                 0.1442                 0.0516
 IR Inten    --      5.8967                 3.2654                 0.8453

                     13                     14                     15
                     A'                     A'                     A"
 Frequencies --    284.6791               312.1462               312.4182
 Red. masses --      1.1789                 1.1013                 1.3013
 Frc consts  --      0.0563                 0.0632                 0.0748
 IR Inten    --      0.9082                 1.0717                 0.1225

                     16                     17                     18
                     A"                     A'                     A'
 Frequencies --    350.8665               393.1498               410.9074
 Red. masses --      2.3856                 3.4848                 2.4914
 Frc consts  --      0.1730                 0.3174                 0.2478
 IR Inten    --      2.7548                 0.2057                 0.2828

                     19                     20                     21
                     A"                     A"                     A"
 Frequencies --    426.3315               473.7706               484.9420
 Red. masses --      2.1730                 2.5925                 3.0835
 Frc consts  --      0.2327                 0.3428                 0.4272
 IR Inten    --      4.2414                 3.7094                 5.3734

                     22                     23                     24
                     A'                     A'                     A'
 Frequencies --    486.5610               502.7038               520.0685
 Red. masses --      2.8461                 3.1727                 3.3002
 Frc consts  --      0.3970                 0.4724                 0.5259
 IR Inten    --      5.8362                 2.4005                 1.2541

                     25                     26                     27
                     A"                     A"                     A'
 Frequencies --    520.2836               641.5091               657.1322
 Red. masses --      3.0442                 5.2108                 4.5067
 Frc consts  --      0.4855                 1.2635                 1.1466
 IR Inten    --     10.3297                 5.3285                 3.9394

                     28                     29                     30
                     A'                     A'                     A'
 Frequencies --    728.4171               771.3342               800.2421
 Red. masses --      3.3512                 1.4907                 3.4393
 Frc consts  --      1.0477                 0.5225                 1.2977
 IR Inten    --      8.1503                50.4740                26.7448

                     31                     32                     33
                     A"                     A'                     A"
 Frequencies --    875.2874               883.9137               927.2628
 Red. masses --      3.4782                 3.8572                 1.4356
 Frc consts  --      1.5700                 1.7756                 0.7273
 IR Inten    --     67.5817                10.8465                11.7992

                     34                     35                     36
                     A'                     A"                     A'
 Frequencies --    975.6742               986.5022               996.3173
 Red. masses --      1.4608                 2.2954                 1.7524
 Frc consts  --      0.8193                 1.3161                 1.0249
 IR Inten    --      2.2147                 6.4598                14.4573

                     37                     38                     39
                     A"                     A'                     A"
 Frequencies --   1007.0970              1021.0227              1032.3029
 Red. masses --      2.6624                 2.3859                 2.6171
 Frc consts  --      1.5910                 1.4654                 1.6432
 IR Inten    --      3.4584                46.7138                39.0393

                     40                     41                     42
                     A"                     A'                     A'
 Frequencies --   1054.4874              1054.7558              1068.3142
 Red. masses --      1.5818                 1.5761                 3.3710
 Frc consts  --      1.0363                 1.0331                 2.2668
 IR Inten    --      0.7908                18.3608                79.8867

                     43                     44                     45
                     A'                     A"                     A'
 Frequencies --   1124.9086              1128.6803              1131.1910
 Red. masses --      2.3600                 1.2664                 1.2773
 Frc consts  --      1.7596                 0.9505                 0.9629
 IR Inten    --     34.6842                 2.0416                 2.5826

                     46                     47                     48
                     A"                     A"                     A'
 Frequencies --   1180.0516              1180.6578              1181.6052
 Red. masses --      1.4462                 1.2811                 1.4920
 Frc consts  --      1.1865                 1.0522                 1.2274
 IR Inten    --      0.4997                 2.5018                 8.4512

                     49                     50                     51
                     A"                     A'                     A"
 Frequencies --   1212.0545              1213.1072              1246.3456
 Red. masses --      1.8134                 1.8146                 1.6502
 Frc consts  --      1.5696                 1.5733                 1.5103
 IR Inten    --      3.0240                 3.9255                 7.5368

                     52                     53                     54
                     A'                     A"                     A'
 Frequencies --   1260.0929              1281.8677              1286.0620
 Red. masses --      2.2401                 2.1081                 2.1686
 Frc consts  --      2.0957                 2.0409                 2.1133
 IR Inten    --      2.3607                 3.7838                11.0492

                     55                     56                     57
                     A"                     A'                     A"
 Frequencies --   1312.4431              1320.6395              1344.5857
 Red. masses --      1.9186                 1.7462                 2.8754
 Frc consts  --      1.9471                 1.7944                 3.0628
 IR Inten    --      6.8369                27.1836                11.1915

                     58                     59                     60
                     A'                     A"                     A'
 Frequencies --   1377.7963              1389.9972              1444.9708
 Red. masses --      1.8707                 1.4461                 1.1628
 Frc consts  --      2.0923                 1.6462                 1.4305
 IR Inten    --     25.7613                39.4158                 8.6492

                     61                     62                     63
                     A"                     A'                     A"
 Frequencies --   1444.9963              1455.2749              1469.3799
 Red. masses --      1.1605                 2.0652                 1.1721
 Frc consts  --      1.4276                 2.5770                 1.4910
 IR Inten    --      0.0729                85.9413                 0.3026

                     64                     65                     66
                     A'                     A"                     A'
 Frequencies --   1473.3129              1484.4208              1484.8798
 Red. masses --      1.2711                 1.0578                 1.0593
 Frc consts  --      1.6257                 1.3733                 1.3761
 IR Inten    --     22.0348                 0.1789                 1.6299

                     67                     68                     69
                     A"                     A'                     A"
 Frequencies --   1485.2599              1486.0095              1498.4290
 Red. masses --      1.0599                 1.0659                 1.1347
 Frc consts  --      1.3775                 1.3868                 1.5010
 IR Inten    --      0.1529                 5.9120                18.8362

                     70                     71                     72
                     A'                     A"                     A'
 Frequencies --   1499.6249              1500.0341              1501.0334
 Red. masses --      1.0775                 1.0595                 1.0570
 Frc consts  --      1.4277                 1.4046                 1.4031
 IR Inten    --     29.6129                 6.9064                28.0256

                     73                     74                     75
                     A"                     A'                     A"
 Frequencies --   1504.9685              1505.6183              1511.9949
 Red. masses --      1.0526                 1.0441                 2.3619
 Frc consts  --      1.4047                 1.3945                 3.1814
 IR Inten    --     29.7652                17.0742                 0.0206

                     76                     77                     78
                     A"                     A'                     A"
 Frequencies --   1627.9530              1643.2590              2998.2037
 Red. masses --      7.0356                 5.8502                 1.0524
 Frc consts  --     10.9859                 9.3075                 5.5737
 IR Inten    --      4.1114               104.7425               158.9524

                     79                     80                     81
                     A'                     A"                     A'
 Frequencies --   2998.6535              3003.7151              3004.6481
 Red. masses --      1.0523                 1.0497                 1.0498
 Frc consts  --      5.5747                 5.5801                 5.5841
 IR Inten    --     83.3030               226.7372                29.8367

                     82                     83                     84
                     A"                     A'                     A"
 Frequencies --   3025.8222              3026.6176              3087.6558
 Red. masses --      1.0649                 1.0648                 1.0981
 Frc consts  --      5.7446                 5.7470                 6.1682
 IR Inten    --    210.7753                18.9030                 0.5937

                     85                     86                     87
                     A'                     A"                     A'
 Frequencies --   3087.7539              3112.4719              3112.5495
 Red. masses --      1.0982                 1.0846                 1.0846
 Frc consts  --      6.1688                 6.1906                 6.1907
 IR Inten    --     34.6379                15.9816                22.0296

                     88                     89                     90
                     A'                     A"                     A"
 Frequencies --   3119.7903              3119.8349              3156.1295
 Red. masses --      1.0812                 1.0812                 1.1050
 Frc consts  --      6.2000                 6.2004                 6.4853
 IR Inten    --     10.4655                41.1484                 0.9723

                     91                     92                     93
                     A'                     A'                     A"
 Frequencies --   3156.2080              3165.9370              3165.9720
 Red. masses --      1.1050                 1.1050                 1.1050
 Frc consts  --      6.4857                 6.5255                 6.5255
 IR Inten    --     36.8209                28.0372                 2.0980

                     94                     95                     96
                     A'                     A"                     A'
 Frequencies --   3168.9181              3173.6027              3204.3147
 Red. masses --      1.0867                 1.0908                 1.0952
 Frc consts  --      6.4296                 6.4731                 6.6253
 IR Inten    --     15.1423                51.3345                51.9492

 - Thermochemistry -
 -------------------
 Temperature   298.150 Kelvin.  Pressure   1.00000 Atm.
 Atom     1 has atomic number  6 and mass  12.00000

 Molecular mass:   294.05962 amu.
 Principal axes and moments of inertia in atomic units:
                           1         2         3
     Eigenvalues --  2967.599373393.490405628.13876
           X            0.00000   1.00000   0.00315
           Y            0.00000  -0.00315   1.00000
           Z            1.00000   0.00000  -0.00000
 This molecule is an asymmetric top.
 Rotational symmetry number  1.
 Warning -- assumption of classical behavior for rotation
           may cause significant error
 Rotational temperatures (Kelvin)      0.02919     0.02552     0.01539
 Rotational constants (GHZ):           0.60815     0.53182     0.32066
 Zero-point vibrational energy     779597.6 (Joules/Mol)
                                  186.32831 (Kcal/Mol)
 Warning -- explicit consideration of  25 degrees of freedom as
           vibrations may cause significant error
 Vibrational temperatures:     88.55   101.04   151.63   231.63   255.56
          (Kelvin)            292.38   298.74   342.28   349.74   384.14
                              399.39   408.12   409.59   449.11   449.50
                              504.82   565.65   591.20   613.40   681.65
                              697.72   700.05   723.28   748.26   748.57
                              922.99   945.47  1048.03  1109.78  1151.37
                             1259.34  1271.75  1334.12  1403.78  1419.36
                             1433.48  1448.99  1469.02  1485.25  1517.17
                             1517.56  1537.07  1618.49  1623.92  1627.53
                             1697.83  1698.70  1700.07  1743.88  1745.39
                             1793.21  1812.99  1844.32  1850.36  1888.31
                             1900.11  1934.56  1982.34  1999.90  2078.99
                             2079.03  2093.82  2114.11  2119.77  2135.75
                             2136.41  2136.96  2138.04  2155.91  2157.63
                             2158.21  2159.65  2165.31  2166.25  2175.42
                             2342.26  2364.28  4313.75  4314.39  4321.68
                             4323.02  4353.48  4354.63  4442.45  4442.59
                             4478.15  4478.26  4488.68  4488.75  4540.97
                             4541.08  4555.08  4555.13  4559.37  4566.11
                             4610.29

 Zero-point correction=                           0.296933 (Hartree/Particle)
 Thermal correction to Energy=                    0.311987
 Thermal correction to Enthalpy=                  0.312931
 Thermal correction to Gibbs Free Energy=         0.255815
 Sum of electronic and zero-point Energies=           -688.547788
 Sum of electronic and thermal Energies=              -688.532735
 Sum of electronic and thermal Enthalpies=            -688.531790
 Sum of electronic and thermal Free Energies=         -688.588906

                     E (Thermal)             CV                S
                      KCal/Mol        Cal/Mol-Kelvin    Cal/Mol-Kelvin
 Total                  195.775             59.599            120.210
 Electronic               0.000              0.000              0.000
 Translational            0.889              2.981             42.933
 Rotational               0.889              2.981             32.405
 Vibrational            193.997             53.637             44.872
 Vibration     1          0.597              1.973              4.407
 Vibration     2          0.598              1.968              4.147
 Vibration     3          0.605              1.945              3.352
 Vibration     4          0.622              1.890              2.538
 Vibration     5          0.628              1.870              2.353
 Vibration     6          0.639              1.835              2.104
 Vibration     7          0.641              1.829              2.064
 Vibration     8          0.656              1.783              1.819
 Vibration     9          0.659              1.774              1.780
 Vibration    10          0.672              1.734              1.616
 Vibration    11          0.679              1.715              1.548
 Vibration    12          0.682              1.704              1.512
 Vibration    13          0.683              1.702              1.505
 Vibration    14          0.700              1.651              1.351
 Vibration    15          0.701              1.650              1.349
 Vibration    16          0.728              1.573              1.162
 Vibration    17          0.760              1.485              0.988
 Vibration    18          0.775              1.447              0.923
 Vibration    19          0.788              1.413              0.871
 Vibration    20          0.831              1.308              0.727
 Vibration    21          0.841              1.283              0.697
 Vibration    22          0.843              1.280              0.693
 Vibration    23          0.858              1.244              0.651
 Vibration    24          0.875              1.206              0.610
 Vibration    25          0.875              1.205              0.609

 Optimization completed.
    -- Stationary point found.
 Normal termination of Gaussian 16 at Thu Mar  7 21:26:21 2024.
