 Gaussian 16, Revision C.01,
 Gaussian 16:  ES64L-G16RevC.01  3-Jul-2019

 ----------------------------------------------------------
 # wb97xd def2TZVPP SCRF=(solvent=dichloromethane) opt freq
 ----------------------------------------------------------

 ------------
 YRhMeH_sigma
 ------------
 Symbolic Z-matrix:
 Charge =  0 Multiplicity = 1

 SCF Done:  E(RwB97XD) =  -729.371476985     A.U. after   18 cycles
 SCF Done:  E(RwB97XD) =  -729.376702916     A.U. after   13 cycles
 SCF Done:  E(RwB97XD) =  -729.377165285     A.U. after   12 cycles
 SCF Done:  E(RwB97XD) =  -729.377482434     A.U. after   13 cycles
 SCF Done:  E(RwB97XD) =  -729.377596501     A.U. after   12 cycles
 SCF Done:  E(RwB97XD) =  -729.377633727     A.U. after   11 cycles
 SCF Done:  E(RwB97XD) =  -729.377646000     A.U. after   10 cycles
 SCF Done:  E(RwB97XD) =  -729.377647409     A.U. after    9 cycles
 SCF Done:  E(RwB97XD) =  -729.377647841     A.U. after    9 cycles
 SCF Done:  E(RwB97XD) =  -729.377648044     A.U. after    8 cycles
 Optimization completed.
    -- Stationary point found.
 Normal termination of Gaussian 16 at Thu Mar  7 20:16:54 2024.

 ----------------------------------------------------------------------
 #N Geom=AllCheck Guess=TCheck SCRF=Check GenChk RwB97XD/def2TZVPP Freq
 ----------------------------------------------------------------------

 Structure from the checkpoint file:  "YRhMeH_sigma.chk"
 ------------
 YRhMeH_sigma
 ------------
 Charge =  0 Multiplicity = 1

                         Standard orientation:
 ---------------------------------------------------------------------
 Center     Atomic      Atomic             Coordinates (Angstroms)
 Number     Number       Type             X           Y           Z
 ---------------------------------------------------------------------
      1          6           0        1.779482    1.208341   -0.127841
      2          6           0        1.779356   -1.208523   -0.127844
      3          6           0        3.160906    1.210904    0.003605
      4          6           0        3.160780   -1.211230    0.003601
      5          6           0        3.847129   -0.000199    0.086255
      6          1           0        3.713398    2.143872    0.034491
      7          1           0        3.713175   -2.144256    0.034485
      8          6           0        0.911879    2.410357   -0.377707
      9          1           0        0.890528    2.605379   -1.451462
     10          1           0        1.273625    3.323001    0.109319
     11          6           0        0.911628   -2.410448   -0.377711
     12          1           0        0.890255   -2.605466   -1.451466
     13          1           0        1.273280   -3.323130    0.109313
     14          7           0       -0.499063    2.137333    0.038218
     15          7           0       -0.499285   -2.137277    0.038218
     16          6           0       -3.395440    0.000144   -0.001608
     17          1           0       -2.761626    0.000145    0.899300
     18          1           0       -4.014414    0.893525    0.007484
     19          1           0       -4.014411   -0.893238    0.007488
     20          6           0       -1.412426    2.977684   -0.744177
     21          1           0       -2.432822    2.812847   -0.403358
     22          1           0       -1.170922    4.041367   -0.628440
     23          1           0       -1.345216    2.705952   -1.795106
     24          6           0       -0.644281    2.480626    1.463290
     25          1           0       -0.476605    3.553899    1.618693
     26          1           0       -1.645734    2.226108    1.803849
     27          1           0        0.078574    1.917819    2.048572
     28          6           0       -1.412742   -2.977530   -0.744172
     29          1           0       -1.171354   -4.041239   -0.628433
     30          1           0       -2.433119   -2.812579   -0.403350
     31          1           0       -1.345505   -2.705808   -1.795102
     32          6           0       -0.644536   -2.480552    1.463291
     33          1           0       -1.645961   -2.225928    1.803852
     34          1           0       -0.476972   -3.553843    1.618694
     35          1           0        0.078381   -1.917821    2.048571
     36          1           0       -2.792331    0.000141   -0.928687
     37          1           0        4.923685   -0.000255    0.199188
     38          6           0        1.080951   -0.000054   -0.153018
     39         45           0       -0.819013    0.000044   -0.124194
 ---------------------------------------------------------------------

 SCF Done:  E(RwB97XD) =  -729.377648044     A.U. after    1 cycles

 The electronic state is 1-A.
 Alpha  occ. eigenvalues --  -14.47540 -14.47540 -10.31004 -10.31003 -10.30488
 Alpha  occ. eigenvalues --  -10.30487 -10.30329 -10.30329 -10.27690 -10.27180
 Alpha  occ. eigenvalues --  -10.27177 -10.26948 -10.26947 -10.26738 -10.24914
 Alpha  occ. eigenvalues --   -3.24999  -2.01427  -2.00858  -1.98265  -1.04599
 Alpha  occ. eigenvalues --   -1.04329  -0.94266  -0.86885  -0.84515  -0.81181
 Alpha  occ. eigenvalues --   -0.81169  -0.80719  -0.78441  -0.77889  -0.71201
 Alpha  occ. eigenvalues --   -0.70348  -0.65985  -0.65826  -0.59430  -0.57803
 Alpha  occ. eigenvalues --   -0.57189  -0.56935  -0.56315  -0.55072  -0.54818
 Alpha  occ. eigenvalues --   -0.52390  -0.50452  -0.50338  -0.49671  -0.49379
 Alpha  occ. eigenvalues --   -0.49098  -0.48632  -0.47830  -0.47456  -0.46693
 Alpha  occ. eigenvalues --   -0.46163  -0.45516  -0.45307  -0.44956  -0.43546
 Alpha  occ. eigenvalues --   -0.42256  -0.39961  -0.39302  -0.35124  -0.34725
 Alpha  occ. eigenvalues --   -0.32640  -0.30816  -0.26450  -0.24774  -0.23033
 Alpha  occ. eigenvalues --   -0.22698
 Alpha virt. eigenvalues --    0.05821   0.06906   0.08303   0.09783   0.10075
 Alpha virt. eigenvalues --    0.10818   0.11108   0.13944   0.15098   0.15185
 Alpha virt. eigenvalues --    0.15767   0.15988   0.16395   0.16752   0.17029

 Mulliken charges:
               1
     1  C   -0.064019
     2  C   -0.064019
     3  C   -0.238489
     4  C   -0.238489
     5  C   -0.133562
     6  H    0.112060
     7  H    0.112060
     8  C   -0.064298
     9  H    0.100400
    10  H    0.096956
    11  C   -0.064299
    12  H    0.100400
    13  H    0.096956
    14  N   -0.063615
    15  N   -0.063614
    16  C   -0.339671
    17  H    0.088918
    18  H    0.106339
    19  H    0.106335
    20  C   -0.181518
    21  H    0.099919
    22  H    0.101136
    23  H    0.108464
    24  C   -0.164735
    25  H    0.090904
    26  H    0.099614
    27  H    0.118127
    28  C   -0.181520
    29  H    0.101137
    30  H    0.099919
    31  H    0.108464
    32  C   -0.164735
    33  H    0.099614
    34  H    0.090904
    35  H    0.118127
    36  H    0.092029
    37  H    0.124957
    38  C    0.071173
    39  Rh  -0.418329
 Sum of Mulliken charges =  -0.00000

 Dipole moment (field-independent basis, Debye):
    X=             -4.1994    Y=              0.0002    Z=              1.0581  Tot=              4.3306
 Quadrupole moment (field-independent basis, Debye-Ang):
   XX=           -112.9840   YY=            -92.8163   ZZ=           -116.6147
   XY=              0.0010   XZ=             -0.7601   YZ=              0.0001

  Exact polarizability:     344.162      -0.003     296.003       7.882      -0.000     220.444
 Approx polarizability:     271.266      -0.002     240.810       4.133      -0.000     200.903

                      1                      2                      3
                      A                      A                      A
 Frequencies --     57.1446                60.2436                75.7926
 Red. masses --      3.2584                 2.8837                 4.0689
 Frc consts  --      0.0063                 0.0062                 0.0138
 IR Inten    --      0.2182                 0.4649                 7.5919

                      4                      5                      6
                      A                      A                      A
 Frequencies --    115.3747               129.1263               177.0270
 Red. masses --      3.0192                 2.8963                 1.1909
 Frc consts  --      0.0237                 0.0285                 0.0220
 IR Inten    --      3.7986                 0.5849                 0.2454

                      7                      8                      9
                      A                      A                      A
 Frequencies --    178.1087               188.7271               214.2612
 Red. masses --      3.4655                 2.0194                 3.2474
 Frc consts  --      0.0648                 0.0424                 0.0878
 IR Inten    --      3.8004                 0.3768                 1.7806

                     10                     11                     12
                      A                      A                      A
 Frequencies --    223.1360               232.3974               241.0694
 Red. masses --      3.7508                 3.6301                 3.6002
 Frc consts  --      0.1100                 0.1155                 0.1233
 IR Inten    --      4.6762                 9.2398                 0.2853

                     13                     14                     15
                      A                      A                      A
 Frequencies --    247.0248               270.7111               280.7136
 Red. masses --      3.7254                 2.6264                 3.4618
 Frc consts  --      0.1339                 0.1134                 0.1607
 IR Inten    --      0.1471                 1.8908                 2.4649

                     16                     17                     18
                      A                      A                      A
 Frequencies --    295.9216               296.1485               315.0279
 Red. masses --      1.1745                 1.1732                 1.2741
 Frc consts  --      0.0606                 0.0606                 0.0745
 IR Inten    --      0.7235                 0.4442                 0.1100

                     19                     20                     21
                      A                      A                      A
 Frequencies --    316.2951               330.5105               357.6503
 Red. masses --      1.0987                 1.3060                 1.9806
 Frc consts  --      0.0648                 0.0841                 0.1493
 IR Inten    --      1.2171                 2.3164                 0.1416

                     22                     23                     24
                      A                      A                      A
 Frequencies --    391.1334               408.5094               429.3147
 Red. masses --      3.4641                 2.5435                 2.2384
 Frc consts  --      0.3122                 0.2501                 0.2431
 IR Inten    --      0.1663                 0.3303                 1.5401

                     25                     26                     27
                      A                      A                      A
 Frequencies --    457.0036               475.0957               487.3450
 Red. masses --      1.0678                 2.5548                 3.1529
 Frc consts  --      0.1314                 0.3398                 0.4412
 IR Inten    --      1.2035                 3.9369                 6.9193

                     28                     29                     30
                      A                      A                      A
 Frequencies --    488.8937               507.6343               524.0815
 Red. masses --      2.6154                 3.2396                 3.0252
 Frc consts  --      0.3683                 0.4919                 0.4896
 IR Inten    --      3.5037                 0.7160                13.3002

                     31                     32                     33
                      A                      A                      A
 Frequencies --    524.6888               643.9117               657.0977
 Red. masses --      3.2649                 5.2249                 4.5640
 Frc consts  --      0.5296                 1.2764                 1.1611
 IR Inten    --      0.8527                 3.5144                 3.7828

                     34                     35                     36
                      A                      A                      A
 Frequencies --    736.2362               772.9912               801.7218
 Red. masses --      3.3084                 1.5196                 3.3665
 Frc consts  --      1.0566                 0.5350                 1.2749
 IR Inten    --     15.9883                49.0661                22.4374

                     37                     38                     39
                      A                      A                      A
 Frequencies --    876.1791               885.6190               927.8470
 Red. masses --      3.4531                 3.8538                 1.4362
 Frc consts  --      1.5619                 1.7809                 0.7285
 IR Inten    --     70.9889                11.9014                14.0275

                     40                     41                     42
                      A                      A                      A
 Frequencies --    977.8346               987.8861               997.0939
 Red. masses --      1.4751                 2.2583                 1.7476
 Frc consts  --      0.8310                 1.2985                 1.0237
 IR Inten    --      1.3005                10.8768                13.6980

                     43                     44                     45
                      A                      A                      A
 Frequencies --   1006.7835              1020.4008              1035.1872
 Red. masses --      2.6897                 2.3908                 2.6628
 Frc consts  --      1.6063                 1.4667                 1.6812
 IR Inten    --      6.7608                46.8498                24.9720

                     46                     47                     48
                      A                      A                      A
 Frequencies --   1053.9946              1054.1185              1069.0750
 Red. masses --      1.5913                 1.5811                 3.3866
 Frc consts  --      1.0415                 1.0351                 2.2805
 IR Inten    --      0.5968                17.7189                62.7386

                     49                     50                     51
                      A                      A                      A
 Frequencies --   1125.9071              1129.9737              1132.3400
 Red. masses --      2.3363                 1.2642                 1.2735
 Frc consts  --      1.7450                 0.9510                 0.9621
 IR Inten    --     22.6387                 2.0615                 2.1763

                     52                     53                     54
                      A                      A                      A
 Frequencies --   1180.4684              1181.4247              1182.0020
 Red. masses --      1.4454                 1.2889                 1.4995
 Frc consts  --      1.1867                 1.0599                 1.2343
 IR Inten    --      0.3512                 2.4169                 7.9797

                     55                     56                     57
                      A                      A                      A
 Frequencies --   1212.7745              1214.1412              1246.5367
 Red. masses --      1.8048                 1.8057                 1.6539
 Frc consts  --      1.5641                 1.5683                 1.5141
 IR Inten    --      3.1163                 4.0714                 4.0524

                     58                     59                     60
                      A                      A                      A
 Frequencies --   1260.4372              1277.8042              1280.8595
 Red. masses --      2.2144                 1.1843                 2.0846
 Frc consts  --      2.0727                 1.1393                 2.0150
 IR Inten    --      2.4364                13.5452                 1.9722

                     61                     62                     63
                      A                      A                      A
 Frequencies --   1284.7914              1313.9202              1322.0909
 Red. masses --      2.1539                 1.8890                 1.7165
 Frc consts  --      2.0948                 1.9214                 1.7678
 IR Inten    --      8.2142                 4.0483                23.9675

                     64                     65                     66
                      A                      A                      A
 Frequencies --   1343.9152              1356.6764              1381.2296
 Red. masses --      2.8887                 1.1580                 1.8696
 Frc consts  --      3.0740                 1.2558                 2.1016
 IR Inten    --      6.7186                68.7752                20.5076

                     67                     68                     69
                      A                      A                      A
 Frequencies --   1391.6321              1393.8776              1445.6682
 Red. masses --      1.4467                 1.1489                 1.1591
 Frc consts  --      1.6507                 1.3152                 1.4273
 IR Inten    --     37.5314                50.1392                 0.0448

                     70                     71                     72
                      A                      A                      A
 Frequencies --   1445.8497              1457.6710              1470.0777
 Red. masses --      1.1618                 2.0654                 1.1684
 Frc consts  --      1.4310                 2.5856                 1.4878
 IR Inten    --     10.5703                69.5354                 0.3624

                     73                     74                     75
                      A                      A                      A
 Frequencies --   1474.1117              1484.6426              1485.1275
 Red. masses --      1.2834                 1.0485                 1.0539
 Frc consts  --      1.6431                 1.3616                 1.3695
 IR Inten    --     20.9008                 0.2940                 1.1924

                     76                     77                     78
                      A                      A                      A
 Frequencies --   1486.8627              1488.0712              1498.5322
 Red. masses --      1.0720                 1.0766                 1.0920
 Frc consts  --      1.3963                 1.4046                 1.4449
 IR Inten    --      0.4233                 2.2261                 5.4775

                     79                     80                     81
                      A                      A                      A
 Frequencies --   1501.0015              1503.9941              1504.6015
 Red. masses --      1.0785                 1.1065                 1.0466
 Frc consts  --      1.4316                 1.4746                 1.3960
 IR Inten    --     21.8870                28.0206                12.4959

                     82                     83                     84
                      A                      A                      A
 Frequencies --   1505.1704              1506.6513              1510.3388
 Red. masses --      1.0525                 1.0442                 1.0232
 Frc consts  --      1.4049                 1.3966                 1.3752
 IR Inten    --     45.6244                14.0014                 6.2540

                     85                     86                     87
                      A                      A                      A
 Frequencies --   1513.1853              1629.4575              1632.3793
 Red. masses --      2.2749                 1.0826                 7.1662
 Frc consts  --      3.0690                 1.6935                11.2507
 IR Inten    --      0.5663               160.6690                 1.5583

                     88                     89                     90
                      A                      A                      A
 Frequencies --   1646.8861              2907.6292              2993.0466
 Red. masses --      4.2876                 1.0322                 1.0961
 Frc consts  --      6.8516                 5.1413                 5.7853
 IR Inten    --     28.8732                10.4806                15.6065

                     91                     92                     93
                      A                      A                      A
 Frequencies --   3002.4685              3002.9707              3009.1411
 Red. masses --      1.0517                 1.0517                 1.0499
 Frc consts  --      5.5862                 5.5877                 5.6011
 IR Inten    --    153.0310                79.0962               206.7432

                     94                     95                     96
                      A                      A                      A
 Frequencies --   3009.9841              3026.4684              3027.3629
 Red. masses --      1.0500                 1.0649                 1.0647
 Frc consts  --      5.6049                 5.7469                 5.7494
 IR Inten    --     23.4709               216.0835                16.6407

                     97                     98                     99
                      A                      A                      A
 Frequencies --   3088.0931              3088.2023              3118.8946
 Red. masses --      1.0982                 1.0983                 1.0841
 Frc consts  --      6.1705                 6.1711                 6.2133
 IR Inten    --      0.6195                34.2989                 9.6980

                    100                    101                    102
                      A                      A                      A
 Frequencies --   3118.9029              3121.2733              3121.3383
 Red. masses --      1.0841                 1.0818                 1.0818
 Frc consts  --      6.2133                 6.2095                 6.2096
 IR Inten    --      8.8975                46.5451                24.0014

                    103                    104                    105
                      A                      A                      A
 Frequencies --   3127.3306              3161.6336              3161.7290
 Red. masses --      1.0757                 1.1053                 1.1053
 Frc consts  --      6.1983                 6.5098                 6.5102
 IR Inten    --     25.7989                 0.5926                32.5288

                    106                    107                    108
                      A                      A                      A
 Frequencies --   3166.9516              3166.9615              3169.0946
 Red. masses --      1.1051                 1.1051                 1.0867
 Frc consts  --      6.5302                 6.5302                 6.4300
 IR Inten    --     32.4438                 2.6050                12.9318

                    109                    110                    111
                      A                      A                      A
 Frequencies --   3173.9780              3179.2432              3203.7386
 Red. masses --      1.0909                 1.1046                 1.0953
 Frc consts  --      6.4748                 6.5778                 6.6236
 IR Inten    --     50.9777                16.5741                52.4604

 - Thermochemistry -
 -------------------
 Temperature   298.150 Kelvin.  Pressure   1.00000 Atm.
 Atom     1 has atomic number  6 and mass  12.00000

 Molecular mass:   310.09092 amu.
 Principal axes and moments of inertia in atomic units:
                           1         2         3
     Eigenvalues --  3412.991423689.988816357.73139
           X            1.00000   0.00003  -0.00149
           Y           -0.00003   1.00000   0.00000
           Z            0.00149  -0.00000   1.00000
 This molecule is an asymmetric top.
 Rotational symmetry number  1.
 Warning -- assumption of classical behavior for rotation
           may cause significant error
 Rotational temperatures (Kelvin)      0.02538     0.02347     0.01362
 Rotational constants (GHZ):           0.52879     0.48909     0.28387
 Zero-point vibrational energy     905271.7 (Joules/Mol)
                                  216.36513 (Kcal/Mol)
 Warning -- explicit consideration of  31 degrees of freedom as
           vibrations may cause significant error
 Vibrational temperatures:     82.22    86.68   109.05   166.00   185.78
          (Kelvin)            254.70   256.26   271.54   308.27   321.04
                              334.37   346.85   355.41   389.49   403.88
                              425.77   426.09   453.25   455.08   475.53
                              514.58   562.75   587.75   617.69   657.53
                              683.56   701.18   703.41   730.37   754.04
                              754.91   926.45   945.42  1059.28  1112.16
                             1153.50  1260.63  1274.21  1334.96  1406.89
                             1421.35  1434.60  1448.54  1468.13  1489.40
                             1516.46  1516.64  1538.16  1619.93  1625.78
                             1629.18  1698.43  1699.81  1700.64  1744.91
                             1746.88  1793.49  1813.49  1838.48  1842.87
                             1848.53  1890.44  1902.19  1933.59  1951.95
                             1987.28  2002.25  2005.48  2079.99  2080.26
                             2097.26  2115.11  2120.92  2136.07  2136.77
                             2139.26  2141.00  2156.05  2159.61  2163.91
                             2164.79  2165.60  2167.74  2173.04  2177.14
                             2344.43  2348.63  2369.50  4183.43  4306.33
                             4319.88  4320.61  4329.48  4330.70  4354.41
                             4355.70  4443.08  4443.23  4487.39  4487.41
                             4490.82  4490.91  4499.53  4548.89  4549.02
                             4556.54  4556.55  4559.62  4566.65  4574.22
                             4609.47

 Zero-point correction=                           0.344800 (Hartree/Particle)
 Thermal correction to Energy=                    0.362941
 Thermal correction to Enthalpy=                  0.363885
 Thermal correction to Gibbs Free Energy=         0.300508
 Sum of electronic and zero-point Energies=           -729.032848
 Sum of electronic and thermal Energies=              -729.014707
 Sum of electronic and thermal Enthalpies=            -729.013763
 Sum of electronic and thermal Free Energies=         -729.077140

                     E (Thermal)             CV                S
                      KCal/Mol        Cal/Mol-Kelvin    Cal/Mol-Kelvin
 Total                  227.749             70.360            133.388
 Electronic               0.000              0.000              0.000
 Translational            0.889              2.981             43.091
 Rotational               0.889              2.981             32.748
 Vibrational            225.971             64.398             57.549
 Vibration     1          0.596              1.975              4.553
 Vibration     2          0.597              1.973              4.449
 Vibration     3          0.599              1.965              3.997
 Vibration     4          0.608              1.937              3.176
 Vibration     5          0.612              1.924              2.959
 Vibration     6          0.628              1.871              2.360
 Vibration     7          0.629              1.869              2.348
 Vibration     8          0.633              1.855              2.240
 Vibration     9          0.644              1.819              2.007
 Vibration    10          0.649              1.806              1.933
 Vibration    11          0.653              1.791              1.860
 Vibration    12          0.658              1.777              1.795
 Vibration    13          0.661              1.768              1.752
 Vibration    14          0.674              1.727              1.592
 Vibration    15          0.680              1.709              1.529
 Vibration    16          0.690              1.681              1.440
 Vibration    17          0.690              1.681              1.439
 Vibration    18          0.702              1.645              1.336
 Vibration    19          0.703              1.643              1.329
 Vibration    20          0.713              1.615              1.258
 Vibration    21          0.733              1.560              1.132
 Vibration    22          0.759              1.489              0.996
 Vibration    23          0.773              1.452              0.932
 Vibration    24          0.791              1.406              0.861
 Vibration    25          0.815              1.345              0.775
 Vibration    26          0.832              1.305              0.723
 Vibration    27          0.843              1.278              0.691
 Vibration    28          0.845              1.275              0.686
 Vibration    29          0.863              1.233              0.639
 Vibration    30          0.879              1.197              0.601
 Vibration    31          0.880              1.195              0.599

                           ! Non-Optimized Parameters !
 Normal termination of Gaussian 16 at Fri Mar  8 08:22:47 2024.
