 Gaussian 16, Revision C.01,
 Gaussian 16:  ES64L-G16RevC.01  3-Jul-2019

 ----------------------------------------------------------
 # wb97xd def2TZVPP SCRF=(solvent=dichloromethane) opt freq
 ----------------------------------------------------------

 ------
 YRhMeH
 ------
 Symbolic Z-matrix:
 Charge =  0 Multiplicity = 1

 SCF Done:  E(RwB97XD) =  -729.345115608     A.U. after   18 cycles
 SCF Done:  E(RwB97XD) =  -729.350027291     A.U. after   13 cycles
 SCF Done:  E(RwB97XD) =  -729.350351863     A.U. after   12 cycles
 SCF Done:  E(RwB97XD) =  -729.350576743     A.U. after   13 cycles
 SCF Done:  E(RwB97XD) =  -729.350696222     A.U. after   13 cycles
 SCF Done:  E(RwB97XD) =  -729.350821738     A.U. after   13 cycles
 SCF Done:  E(RwB97XD) =  -729.350918686     A.U. after   13 cycles
 SCF Done:  E(RwB97XD) =  -729.350948350     A.U. after   13 cycles
 SCF Done:  E(RwB97XD) =  -729.350955456     A.U. after   12 cycles
 SCF Done:  E(RwB97XD) =  -729.350957194     A.U. after   11 cycles
 SCF Done:  E(RwB97XD) =  -729.350958141     A.U. after   11 cycles
 SCF Done:  E(RwB97XD) =  -729.350958380     A.U. after    9 cycles
 SCF Done:  E(RwB97XD) =  -729.350958498     A.U. after    8 cycles
 Optimization completed.
    -- Stationary point found.
 Normal termination of Gaussian 16 at Thu Mar  7 21:42:38 2024.

 ----------------------------------------------------------------------
 #N Geom=AllCheck Guess=TCheck SCRF=Check GenChk RwB97XD/def2TZVPP Freq
 ----------------------------------------------------------------------

 Structure from the checkpoint file:  "YRhMeH.chk"
 ------
 YRhMeH
 ------
 Charge =  0 Multiplicity = 1

                         Standard orientation:
 ---------------------------------------------------------------------
 Center     Atomic      Atomic             Coordinates (Angstroms)
 Number     Number       Type             X           Y           Z
 ---------------------------------------------------------------------
      1          6           0       -1.211883    1.746642   -0.121341
      2          6           0        1.211883    1.746642   -0.121341
      3          6           0       -1.213905    3.105924    0.160080
      4          6           0        1.213904    3.105924    0.160080
      5          6           0       -0.000000    3.775987    0.308807
      6          1           0       -2.145098    3.651944    0.260013
      7          1           0        2.145098    3.651944    0.260013
      8          6           0       -2.400042    0.876185   -0.426750
      9          1           0       -2.565174    0.880057   -1.505657
     10          1           0       -3.325592    1.215887    0.047549
     11          6           0        2.400042    0.876185   -0.426749
     12          1           0        2.565174    0.880058   -1.505657
     13          1           0        3.325591    1.215887    0.047549
     14          7           0       -2.126489   -0.546522   -0.038238
     15          7           0        2.126490   -0.546522   -0.038238
     16          6           0        0.000000   -2.851722    0.690422
     17          1           0        0.000000   -2.697553    1.780949
     18          1           0       -0.883164   -3.465269    0.473919
     19          1           0        0.883165   -3.465269    0.473919
     20          6           0       -2.961395   -1.448136   -0.842373
     21          1           0       -2.785681   -2.472410   -0.523518
     22          1           0       -4.023690   -1.209865   -0.719338
     23          1           0       -2.689833   -1.353124   -1.890973
     24          6           0       -2.468121   -0.718511    1.385117
     25          1           0       -3.532524   -0.520176    1.548265
     26          1           0       -2.238348   -1.734763    1.692850
     27          1           0       -1.882629   -0.023854    1.984728
     28          6           0        2.961395   -1.448136   -0.842373
     29          1           0        4.023690   -1.209865   -0.719338
     30          1           0        2.785681   -2.472410   -0.523518
     31          1           0        2.689833   -1.353123   -1.890973
     32          6           0        2.468122   -0.718511    1.385117
     33          1           0        2.238349   -1.734763    1.692850
     34          1           0        3.532524   -0.520176    1.548265
     35          1           0        1.882629   -0.023854    1.984728
     36          1           0        0.000000   -0.292217   -1.626745
     37          1           0       -0.000000    4.834411    0.534493
     38          6           0       -0.000000    1.078457   -0.222525
     39         45           0        0.000000   -0.864262   -0.209024
 ---------------------------------------------------------------------

 SCF Done:  E(RwB97XD) =  -729.350958498     A.U. after    1 cycles

 The electronic state is 1-A.
 Alpha  occ. eigenvalues --  -14.48765 -14.48765 -10.31830 -10.31830 -10.30714
 Alpha  occ. eigenvalues --  -10.30714 -10.30692 -10.30692 -10.28094 -10.28093
 Alpha  occ. eigenvalues --  -10.28000 -10.27997 -10.27590 -10.26772 -10.21378
 Alpha  occ. eigenvalues --   -3.31320  -2.07134  -2.06248  -2.05237  -1.05412
 Alpha  occ. eigenvalues --   -1.05106  -0.95408  -0.87796  -0.85459  -0.81670
 Alpha  occ. eigenvalues --   -0.81668  -0.79233  -0.78930  -0.72418  -0.71836
 Alpha  occ. eigenvalues --   -0.70966  -0.66943  -0.66901  -0.60274  -0.58549
 Alpha  occ. eigenvalues --   -0.57831  -0.57549  -0.56997  -0.55739  -0.55653
 Alpha  occ. eigenvalues --   -0.53265  -0.50435  -0.50328  -0.49794  -0.48775
 Alpha  occ. eigenvalues --   -0.48398  -0.47615  -0.46759  -0.46119  -0.46113
 Alpha  occ. eigenvalues --   -0.45784  -0.45245  -0.44205  -0.42764  -0.42663
 Alpha  occ. eigenvalues --   -0.41543  -0.41056  -0.40698  -0.38097  -0.36281
 Alpha  occ. eigenvalues --   -0.33306  -0.31924  -0.30766  -0.29012  -0.28758
 Alpha  occ. eigenvalues --   -0.25051
 Alpha virt. eigenvalues --    0.03412   0.06060   0.08071   0.08548   0.09572
 Alpha virt. eigenvalues --    0.10028   0.10860   0.12384   0.14377   0.14895
 Alpha virt. eigenvalues --    0.15170   0.15812   0.15934   0.16776   0.17207

 Mulliken charges:
               1
     1  C   -0.076268
     2  C   -0.076268
     3  C   -0.219171
     4  C   -0.219171
     5  C   -0.119086
     6  H    0.116382
     7  H    0.116382
     8  C   -0.070957
     9  H    0.106174
    10  H    0.100058
    11  C   -0.070957
    12  H    0.106174
    13  H    0.100058
    14  N   -0.018812
    15  N   -0.018812
    16  C   -0.804489
    17  H    0.087331
    18  H    0.070715
    19  H    0.070715
    20  C   -0.166639
    21  H    0.107611
    22  H    0.104319
    23  H    0.103443
    24  C   -0.180977
    25  H    0.097875
    26  H    0.118556
    27  H    0.117086
    28  C   -0.166639
    29  H    0.104319
    30  H    0.107611
    31  H    0.103443
    32  C   -0.180977
    33  H    0.118556
    34  H    0.097875
    35  H    0.117086
    36  H   -0.047215
    37  H    0.128694
    38  C    0.115610
    39  Rh   0.020365
 Sum of Mulliken charges =  -0.00000

 Dipole moment (field-independent basis, Debye):
    X=              0.0000    Y=              1.7987    Z=              0.2442  Tot=              1.8152
 Quadrupole moment (field-independent basis, Debye-Ang):
   XX=            -88.8558   YY=           -128.3011   ZZ=           -115.4000
   XY=              0.0000   XZ=             -0.0000   YZ=              2.4921

  Exact polarizability:     292.899      -0.000     338.919      -0.000       7.192     208.726
 Approx polarizability:     241.412      -0.000     264.832      -0.000       5.492     197.064

                      1                      2                      3
                      A                      A                      A
 Frequencies --     40.8639                75.0530                77.2705
 Red. masses --      3.3138                 3.5186                 2.9823
 Frc consts  --      0.0033                 0.0117                 0.0105
 IR Inten    --      8.1290                 5.2364                 0.5049

                      4                      5                      6
                      A                      A                      A
 Frequencies --    130.8179               180.7759               192.2638
 Red. masses --      3.1451                 3.5776                 2.6345
 Frc consts  --      0.0317                 0.0689                 0.0574
 IR Inten    --      2.1444                 3.9863                 0.2842

                      7                      8                      9
                      A                      A                      A
 Frequencies --    198.3172               203.9257               210.7533
 Red. masses --      1.5041                 1.7294                 2.7190
 Frc consts  --      0.0349                 0.0424                 0.0712
 IR Inten    --      0.2672                 0.7522                12.3112

                     10                     11                     12
                      A                      A                      A
 Frequencies --    223.4328               245.2660               249.4298
 Red. masses --      2.6664                 2.7869                 3.1625
 Frc consts  --      0.0784                 0.0988                 0.1159
 IR Inten    --      1.3122                 7.4920                 2.4621

                     13                     14                     15
                      A                      A                      A
 Frequencies --    271.8199               281.7568               292.4196
 Red. masses --      3.5100                 2.3282                 1.1716
 Frc consts  --      0.1528                 0.1089                 0.0590
 IR Inten    --      4.5492                 5.3406                 2.0869

                     16                     17                     18
                      A                      A                      A
 Frequencies --    294.7257               316.8511               317.6125
 Red. masses --      1.3445                 1.2644                 1.1486
 Frc consts  --      0.0688                 0.0748                 0.0683
 IR Inten    --      1.6789                 0.4064                 4.3382

                     19                     20                     21
                      A                      A                      A
 Frequencies --    352.3987               377.5263               403.3882
 Red. masses --      2.3190                 1.7175                 2.4255
 Frc consts  --      0.1697                 0.1442                 0.2325
 IR Inten    --      1.7604                11.1680                 2.6722

                     22                     23                     24
                      A                      A                      A
 Frequencies --    414.4032               430.6223               431.2494
 Red. masses --      2.1910                 2.1762                 2.4674
 Frc consts  --      0.2217                 0.2378                 0.2704
 IR Inten    --      5.9016                 1.3209                49.6567

                     25                     26                     27
                      A                      A                      A
 Frequencies --    473.3673               493.5688               498.7452
 Red. masses --      2.5952                 3.1088                 2.4970
 Frc consts  --      0.3426                 0.4462                 0.3660
 IR Inten    --      0.5015                15.6792                 3.4098

                     28                     29                     30
                      A                      A                      A
 Frequencies --    505.8596               521.6531               530.3957
 Red. masses --      2.4570                 2.6636                 2.9335
 Frc consts  --      0.3704                 0.4271                 0.4862
 IR Inten    --     11.2087                 8.2087                22.0907

                     31                     32                     33
                      A                      A                      A
 Frequencies --    566.4574               633.1286               653.0921
 Red. masses --      1.7540                 1.6541                 2.2826
 Frc consts  --      0.3316                 0.3907                 0.5736
 IR Inten    --     66.0365                 0.9572                 6.9164

                     34                     35                     36
                      A                      A                      A
 Frequencies --    661.4198               746.3104               753.2432
 Red. masses --      4.4915                 1.1004                 3.3596
 Frc consts  --      1.1577                 0.3611                 1.1231
 IR Inten    --      0.0745                 2.1742                32.1040

                     37                     38                     39
                      A                      A                      A
 Frequencies --    777.3311               806.3199               874.0648
 Red. masses --      1.5804                 3.0590                 3.4804
 Frc consts  --      0.5626                 1.1718                 1.5666
 IR Inten    --     52.1319                 9.9002                84.9184

                     40                     41                     42
                      A                      A                      A
 Frequencies --    888.4638               933.1169               982.8304
 Red. masses --      3.8164                 1.4532                 1.7314
 Frc consts  --      1.7749                 0.7455                 0.9854
 IR Inten    --     15.0977                14.0575                 5.7660

                     43                     44                     45
                      A                      A                      A
 Frequencies --    983.9475              1000.2344              1003.2400
 Red. masses --      2.2107                 1.5551                 2.7260
 Frc consts  --      1.2610                 0.9167                 1.6165
 IR Inten    --      7.4820                14.3894                 9.0432

                     46                     47                     48
                      A                      A                      A
 Frequencies --   1019.1600              1040.1850              1057.3521
 Red. masses --      2.2999                 2.6461                 1.5989
 Frc consts  --      1.4075                 1.6868                 1.0532
 IR Inten    --     37.0721                22.5650                20.4664

                     49                     50                     51
                      A                      A                      A
 Frequencies --   1057.4176              1067.7997              1121.9362
 Red. masses --      1.6121                 3.4565                 2.3346
 Frc consts  --      1.0621                 2.3220                 1.7314
 IR Inten    --      0.4616                28.8838                 4.1971

                     52                     53                     54
                      A                      A                      A
 Frequencies --   1132.4264              1134.3823              1154.0646
 Red. masses --      1.2573                 1.2606                 1.2182
 Frc consts  --      0.9500                 0.9558                 0.9559
 IR Inten    --      0.5133                 3.2691                10.9623

                     55                     56                     57
                      A                      A                      A
 Frequencies --   1182.4593              1184.0512              1185.0718
 Red. masses --      1.4587                 1.2834                 1.4691
 Frc consts  --      1.2017                 1.0601                 1.2156
 IR Inten    --      1.4738                 0.1927                 4.7403

                     58                     59                     60
                      A                      A                      A
 Frequencies --   1218.9828              1221.7513              1254.2481
 Red. masses --      1.8241                 1.8473                 1.6513
 Frc consts  --      1.5970                 1.6246                 1.5306
 IR Inten    --      2.3432                 6.0955                 2.0069

                     61                     62                     63
                      A                      A                      A
 Frequencies --   1264.6605              1281.8095              1285.9226
 Red. masses --      2.1787                 2.0488                 2.1181
 Frc consts  --      2.0531                 1.9834                 2.0636
 IR Inten    --      0.4262                 3.4865                 1.6328

                     64                     65                     66
                      A                      A                      A
 Frequencies --   1315.3836              1323.1968              1347.9660
 Red. masses --      1.8529                 1.7095                 2.7863
 Frc consts  --      1.8889                 1.7635                 2.9829
 IR Inten    --      1.8387                18.7808                 2.1947

                     67                     68                     69
                      A                      A                      A
 Frequencies --   1386.9752              1393.0184              1443.9058
 Red. masses --      1.7867                 1.4626                 1.1230
 Frc consts  --      2.0251                 1.6722                 1.3795
 IR Inten    --      1.2774                29.2123                 0.7988

                     70                     71                     72
                      A                      A                      A
 Frequencies --   1447.4163              1453.3690              1459.4694
 Red. masses --      1.1602                 1.0944                 1.1772
 Frc consts  --      1.4321                 1.3620                 1.4774
 IR Inten    --      5.7421                 0.6619                10.3753

                     73                     74                     75
                      A                      A                      A
 Frequencies --   1465.9737              1471.5412              1479.1136
 Red. masses --      1.6844                 1.1674                 1.2889
 Frc consts  --      2.1328                 1.4894                 1.6613
 IR Inten    --     30.6436                 0.1078                15.6067

                     76                     77                     78
                      A                      A                      A
 Frequencies --   1485.6614              1487.2531              1489.1597
 Red. masses --      1.0693                 1.1203                 1.0557
 Frc consts  --      1.3905                 1.4599                 1.3793
 IR Inten    --      1.2952                 4.6084                 0.8330

                     79                     80                     81
                      A                      A                      A
 Frequencies --   1489.9072              1501.4438              1501.6543
 Red. masses --      1.0601                 1.0688                 1.0695
 Frc consts  --      1.3865                 1.4196                 1.4210
 IR Inten    --      0.5691                 0.0154                24.6016

                     82                     83                     84
                      A                      A                      A
 Frequencies --   1504.9570              1506.4933              1510.0479
 Red. masses --      1.0632                 1.0563                 1.0992
 Frc consts  --      1.4188                 1.4124                 1.4768
 IR Inten    --     19.1381                25.1252                36.1839

                     85                     86                     87
                      A                      A                      A
 Frequencies --   1511.5620              1516.5352              1648.7958
 Red. masses --      1.0465                 2.3628                 6.0754
 Frc consts  --      1.4087                 3.2017                 9.7311
 IR Inten    --     21.3612                 0.4279                47.0652

                     88                     89                     90
                      A                      A                      A
 Frequencies --   1649.6556              2206.9206              2965.9223
 Red. masses --      7.6015                 1.0186                 1.0375
 Frc consts  --     12.1880                 2.9229                 5.3772
 IR Inten    --      0.3411               113.0820               116.2834

                     91                     92                     93
                      A                      A                      A
 Frequencies --   3023.1535              3023.7775              3027.9715
 Red. masses --      1.0480                 1.0484                 1.0464
 Frc consts  --      5.6434                 5.6477                 5.6529
 IR Inten    --    181.1889                13.3781               102.7508

                     94                     95                     96
                      A                      A                      A
 Frequencies --   3027.9849              3028.7087              3044.8672
 Red. masses --      1.0866                 1.0507                 1.0613
 Frc consts  --      5.8697                 5.6788                 5.7974
 IR Inten    --     82.3819                72.6927               171.0002

                     97                     98                     99
                      A                      A                      A
 Frequencies --   3045.7450              3052.2798              3097.2817
 Red. masses --      1.0611                 1.1010                 1.1029
 Frc consts  --      5.7996                 6.0435                 6.2336
 IR Inten    --     15.0503               119.7622                 6.7640

                    100                    101                    102
                      A                      A                      A
 Frequencies --   3097.4198              3127.5681              3127.5838
 Red. masses --      1.1029                 1.0898                 1.0898
 Frc consts  --      6.2344                 6.2807                 6.2810
 IR Inten    --     27.8680                31.5391                 7.4719

                    103                    104                    105
                      A                      A                      A
 Frequencies --   3131.0787              3131.1838              3173.1782
 Red. masses --      1.0865                 1.0865                 1.1055
 Frc consts  --      6.2760                 6.2762                 6.5583
 IR Inten    --     12.7097                19.0403                 0.5607

                    106                    107                    108
                      A                      A                      A
 Frequencies --   3173.2147              3175.8733              3175.8800
 Red. masses --      1.1055                 1.1040                 1.1041
 Frc consts  --      6.5583                 6.5609                 6.5610
 IR Inten    --     19.7269                31.9760                 2.7729

                    109                    110                    111
                      A                      A                      A
 Frequencies --   3176.7324              3181.8096              3208.9392
 Red. masses --      1.0871                 1.0912                 1.0954
 Frc consts  --      6.4638                 6.5087                 6.6461
 IR Inten    --      9.4522                39.0390                45.6439

 - Thermochemistry -
 -------------------
 Temperature   298.150 Kelvin.  Pressure   1.00000 Atm.
 Atom     1 has atomic number  6 and mass  12.00000

 Molecular mass:   310.09092 amu.
 Principal axes and moments of inertia in atomic units:
                           1         2         3
     Eigenvalues --  3438.008413516.999836105.75811
           X           -0.00000   1.00000  -0.00000
           Y            0.99997   0.00000  -0.00808
           Z            0.00808   0.00000   0.99997
 This molecule is an asymmetric top.
 Rotational symmetry number  1.
 Warning -- assumption of classical behavior for rotation
           may cause significant error
 Rotational temperatures (Kelvin)      0.02519     0.02463     0.01419
 Rotational constants (GHZ):           0.52494     0.51315     0.29558
 Zero-point vibrational energy     894680.8 (Joules/Mol)
                                  213.83384 (Kcal/Mol)
 Warning -- explicit consideration of  31 degrees of freedom as
           vibrations may cause significant error
 Vibrational temperatures:     58.79   107.98   111.17   188.22   260.10
          (Kelvin)            276.62   285.33   293.40   303.23   321.47
                              352.88   358.87   391.09   405.39   420.73
                              424.04   455.88   456.97   507.02   543.18
                              580.39   596.23   619.57   620.47   681.07
                              710.14   717.58   727.82   750.54   763.12
                              815.01   910.93   939.65   951.64  1073.77
                             1083.75  1118.41  1160.11  1257.58  1278.30
                             1342.55  1414.07  1415.68  1439.11  1443.44
                             1466.34  1496.59  1521.29  1521.39  1536.33
                             1614.22  1629.31  1632.12  1660.44  1701.30
                             1703.59  1705.05  1753.84  1757.83  1804.58
                             1819.56  1844.24  1850.16  1892.54  1903.79
                             1939.42  1995.55  2004.24  2077.46  2082.51
                             2091.07  2099.85  2109.21  2117.22  2128.11
                             2137.54  2139.83  2142.57  2143.64  2160.24
                             2160.55  2165.30  2167.51  2172.62  2174.80
                             2181.96  2372.25  2373.49  3175.27  4267.30
                             4349.64  4350.54  4356.58  4356.59  4357.64
                             4380.88  4382.15  4391.55  4456.30  4456.50
                             4499.87  4499.90  4504.92  4505.08  4565.50
                             4565.55  4569.37  4569.38  4570.61  4577.91
                             4616.95

 Zero-point correction=                           0.340766 (Hartree/Particle)
 Thermal correction to Energy=                    0.358531
 Thermal correction to Enthalpy=                  0.359476
 Thermal correction to Gibbs Free Energy=         0.297176
 Sum of electronic and zero-point Energies=           -729.010193
 Sum of electronic and thermal Energies=              -728.992427
 Sum of electronic and thermal Enthalpies=            -728.991483
 Sum of electronic and thermal Free Energies=         -729.053782

                     E (Thermal)             CV                S
                      KCal/Mol        Cal/Mol-Kelvin    Cal/Mol-Kelvin
 Total                  224.982             70.897            131.120
 Electronic               0.000              0.000              0.000
 Translational            0.889              2.981             43.091
 Rotational               0.889              2.981             32.668
 Vibrational            223.204             64.935             55.361
 Vibration     1          0.594              1.981              5.217
 Vibration     2          0.599              1.966              4.016
 Vibration     3          0.599              1.964              3.959
 Vibration     4          0.612              1.923              2.934
 Vibration     5          0.630              1.866              2.320
 Vibration     6          0.634              1.851              2.206
 Vibration     7          0.637              1.842              2.149
 Vibration     8          0.640              1.834              2.097
 Vibration     9          0.643              1.824              2.037
 Vibration    10          0.649              1.805              1.931
 Vibration    11          0.660              1.771              1.764
 Vibration    12          0.662              1.764              1.735
 Vibration    13          0.675              1.725              1.585
 Vibration    14          0.681              1.707              1.523
 Vibration    15          0.688              1.688              1.460
 Vibration    16          0.689              1.684              1.447
 Vibration    17          0.704              1.641              1.326
 Vibration    18          0.704              1.640              1.322
 Vibration    19          0.729              1.570              1.155
 Vibration    20          0.748              1.518              1.049
 Vibration    21          0.769              1.463              0.950
 Vibration    22          0.778              1.439              0.911
 Vibration    23          0.792              1.404              0.857
 Vibration    24          0.792              1.402              0.855
 Vibration    25          0.830              1.309              0.728
 Vibration    26          0.849              1.264              0.674
 Vibration    27          0.854              1.253              0.661
 Vibration    28          0.861              1.237              0.644
 Vibration    29          0.877              1.202              0.606
 Vibration    30          0.885              1.183              0.586
 Vibration    31          0.922              1.104              0.511

                           ! Non-Optimized Parameters !
 Normal termination of Gaussian 16 at Fri Mar  8 10:15:19 2024.
