 Gaussian 16, Revision C.01,
 Gaussian 16:  ES64L-G16RevC.01  3-Jul-2019

 ----------------------------------------------------------------------
 # opt freq 6-311G(2d,p) scrf=(iefpcm,solvent=thf) m06 EmpiricalDispers
 ion=GD3
 ----------------------------------------------------------------------

 ---------------------------------------------------------
 M06 Me-(NCN)PtPh; Custom Lanl2tz(f)+6-311g(d,p) basis set
 ---------------------------------------------------------
 Symbolic Z-matrix:
 Charge =  0 Multiplicity = 1

 SCF Done:  E(RM06) =  -1001.21422486     A.U. after   14 cycles
 SCF Done:  E(RM06) =  -1001.26542377     A.U. after   12 cycles
 SCF Done:  E(RM06) =  -1001.28441822     A.U. after   11 cycles
 SCF Done:  E(RM06) =  -1001.28693452     A.U. after   10 cycles
 SCF Done:  E(RM06) =  -1001.28714961     A.U. after    9 cycles
 SCF Done:  E(RM06) =  -1001.28719376     A.U. after    9 cycles
 SCF Done:  E(RM06) =  -1001.28719986     A.U. after    8 cycles
 SCF Done:  E(RM06) =  -1001.28720209     A.U. after    8 cycles
 SCF Done:  E(RM06) =  -1001.28720272     A.U. after    7 cycles
 Optimization completed.
    -- Stationary point found.
 Normal termination of Gaussian 16 at Mon May 23 19:58:16 2022.

 ----------------------------------------------------------------------
 #N Geom=AllCheck Guess=TCheck SCRF=Check GenChk RM06/6-311G(2d,p) Freq
 ----------------------------------------------------------------------

 Structure from the checkpoint file:  "Me-NCNPtPh.chk"
 ---------------------------------------------------------
 M06 Me-(NCN)PtPh; Custom Lanl2tz(f)+6-311g(d,p) basis set
 ---------------------------------------------------------
 Charge =  0 Multiplicity = 1

                         Standard orientation:
 ---------------------------------------------------------------------
 Center     Atomic      Atomic             Coordinates (Angstroms)
 Number     Number       Type             X           Y           Z
 ---------------------------------------------------------------------
      1         16           0       -0.447032    0.496220    0.000052
      2          8           0       -0.626765    1.177708    1.241315
      3          8           0       -0.625866    1.178595   -1.240847
      4          6           0        1.240498   -0.253282    0.000089
      5          9           0        2.103033    0.741005    0.000374
      6          9           0        1.406863   -0.987154    1.075299
      7          9           0        1.406806   -0.986519   -1.075617
      8          8           0       -1.205422   -0.881279   -0.000697
      9          6           0       -2.650114   -0.792018   -0.000045
     10          1           0       -2.998735   -1.820820   -0.000243
     11          1           0       -2.988115   -0.276814    0.899988
     12          1           0       -2.988842   -0.276269   -0.899510
 ---------------------------------------------------------------------

 SCF Done:  E(RM06) =  -1001.28720272     A.U. after    1 cycles

 The electronic state is 1-A.
 Alpha  occ. eigenvalues --  -89.28608 -24.84879 -24.84854 -24.84852 -19.29345
 Alpha  occ. eigenvalues --  -19.24385 -19.24383 -10.53974 -10.31480  -8.27875
 Alpha  occ. eigenvalues --   -6.19589  -6.19347  -6.19307  -1.40627  -1.31761
 Alpha  occ. eigenvalues --   -1.31721  -1.22004  -1.11333  -1.08685  -0.81958
 Alpha  occ. eigenvalues --   -0.75970  -0.69442  -0.66588  -0.66516  -0.63094
 Alpha  occ. eigenvalues --   -0.56712  -0.54157  -0.53186  -0.52900  -0.52721
 Alpha  occ. eigenvalues --   -0.49887  -0.49757  -0.49036  -0.47421  -0.47091
 Alpha  occ. eigenvalues --   -0.44342  -0.39755  -0.39303  -0.38530  -0.37061
 Alpha  occ. eigenvalues --   -0.34297
 Alpha virt. eigenvalues --    0.02737   0.03978   0.05519   0.06464   0.07366
 Alpha virt. eigenvalues --    0.09461   0.10929   0.13407   0.15349   0.16788
 Alpha virt. eigenvalues --    0.19494   0.20274   0.21324   0.23949   0.29896

 Mulliken charges:
               1
     1  S    1.227529
     2  O   -0.587400
     3  O   -0.587394
     4  C    0.939327
     5  F   -0.282071
     6  F   -0.285106
     7  F   -0.285141
     8  O   -0.543498
     9  C   -0.038884
    10  H    0.152151
    11  H    0.145247
    12  H    0.145241
 Sum of Mulliken charges =  -0.00000

 Dipole moment (field-independent basis, Debye):
    X=             -2.2864    Y=             -2.7607    Z=              0.0007  Tot=              3.5845
 Quadrupole moment (field-independent basis, Debye-Ang):
   XX=            -44.1491   YY=            -58.4013   ZZ=            -60.1727
   XY=              4.3958   XZ=              0.0020   YZ=              0.0003

  Exact polarizability:      64.090       2.841      56.331      -0.002      -0.002      56.207
 Approx polarizability:      67.118       1.404      69.870      -0.005      -0.001      74.500

                      1                      2                      3
                      A                      A                      A
 Frequencies --     43.6377                60.3045               143.5029
 Red. masses --      3.2069                10.7993                 5.6148
 Frc consts  --      0.0036                 0.0231                 0.0681
 IR Inten    --      6.7838                 0.1106                 1.4574

                      4                      5                      6
                      A                      A                      A
 Frequencies --    144.4887               183.3237               258.3114
 Red. masses --      1.1016                16.5931                 7.2241
 Frc consts  --      0.0136                 0.3286                 0.2840
 IR Inten    --      0.4405                 3.8348                25.8812

                      7                      8                      9
                      A                      A                      A
 Frequencies --    306.8955               335.0545               342.9850
 Red. masses --     10.1382                15.7925                 9.2092
 Frc consts  --      0.5626                 1.0446                 0.6383
 IR Inten    --      2.8905                 0.5365                 7.8880

                     10                     11                     12
                      A                      A                      A
 Frequencies --    470.0871               503.0299               566.1113
 Red. masses --     13.9366                13.8945                16.5127
 Frc consts  --      1.8145                 2.0715                 3.1180
 IR Inten    --     29.7611                36.1314                 0.2685

                     13                     14                     15
                      A                      A                      A
 Frequencies --    571.3477               642.9085               776.1404
 Red. masses --     17.7235                12.8142                10.2689
 Frc consts  --      3.4088                 3.1206                 3.6446
 IR Inten    --      0.3832               174.8202               108.3962

                     16                     17                     18
                      A                      A                      A
 Frequencies --    818.2843              1009.5050              1155.0934
 Red. masses --     13.5257                11.8687                10.9266
 Frc consts  --      5.3360                 7.1264                 8.5895
 IR Inten    --     82.7493               463.9739               276.4517

                     19                     20                     21
                      A                      A                      A
 Frequencies --   1159.5713              1176.6301              1250.4790
 Red. masses --      1.2652                 1.3903                13.0018
 Frc consts  --      1.0023                 1.1341                11.9787
 IR Inten    --      2.5029                25.1745               442.3036

                     22                     23                     24
                      A                      A                      A
 Frequencies --   1261.1485              1274.9487              1413.7587
 Red. masses --     13.2564                13.2166                12.1559
 Frc consts  --     12.4224                12.6577                14.3148
 IR Inten    --    286.5863                46.3396               382.8930

                     25                     26                     27
                      A                      A                      A
 Frequencies --   1442.9436              1445.6376              1453.7236
 Red. masses --      1.1309                 1.0746                 1.0571
 Frc consts  --      1.3873                 1.3232                 1.3163
 IR Inten    --     10.1487                 0.2170                14.1734

                     28                     29                     30
                      A                      A                      A
 Frequencies --   3038.2274              3136.5375              3172.7470
 Red. masses --      1.0299                 1.1094                 1.1064
 Frc consts  --      5.6012                 6.4307                 6.5620
 IR Inten    --     23.6560                 7.9510                 2.0106

 - Thermochemistry -
 -------------------
 Temperature   298.150 Kelvin.  Pressure   1.00000 Atm.
 Atom     1 has atomic number 16 and mass  31.97207

 Molecular mass:   163.97550 amu.
 Principal axes and moments of inertia in atomic units:
                           1         2         3
     Eigenvalues --   780.037621518.551891621.13980
           X            0.99918   0.04045  -0.00000
           Y           -0.04045   0.99918  -0.00000
           Z            0.00000   0.00000   1.00000
 This molecule is an asymmetric top.
 Rotational symmetry number  1.
 Warning -- assumption of classical behavior for rotation
           may cause significant error
 Rotational temperatures (Kelvin)      0.11104     0.05704     0.05343
 Rotational constants (GHZ):           2.31366     1.18846     1.11325
 Zero-point vibrational energy     176792.3 (Joules/Mol)
                                   42.25437 (Kcal/Mol)
 Warning -- explicit consideration of  13 degrees of freedom as
           vibrations may cause significant error
 Vibrational temperatures:     62.78    86.76   206.47   207.89   263.76
          (Kelvin)            371.65   441.55   482.07   493.48   676.35
                              723.75   814.51   822.04   925.00  1116.69
                             1177.33  1452.45  1661.92  1668.36  1692.91
                             1799.16  1814.51  1834.37  2034.08  2076.07
                             2079.95  2091.58  4371.33  4512.78  4564.88

 Zero-point correction=                           0.067337 (Hartree/Particle)
 Thermal correction to Energy=                    0.076640
 Thermal correction to Enthalpy=                  0.077584
 Thermal correction to Gibbs Free Energy=         0.031666
 Sum of electronic and zero-point Energies=          -1001.219866
 Sum of electronic and thermal Energies=             -1001.210563
 Sum of electronic and thermal Enthalpies=           -1001.209619
 Sum of electronic and thermal Free Energies=        -1001.255537

                     E (Thermal)             CV                S
                      KCal/Mol        Cal/Mol-Kelvin    Cal/Mol-Kelvin
 Total                   48.092             31.142             96.643
 Electronic               0.000              0.000              0.000
 Translational            0.889              2.981             41.192
 Rotational               0.889              2.981             29.042
 Vibrational             46.315             25.181             26.409
 Vibration     1          0.595              1.980              5.087
 Vibration     2          0.597              1.973              4.447
 Vibration     3          0.616              1.910              2.757
 Vibration     4          0.616              1.909              2.744
 Vibration     5          0.631              1.863              2.294
 Vibration     6          0.667              1.749              1.673
 Vibration     7          0.697              1.661              1.379
 Vibration     8          0.716              1.605              1.236
 Vibration     9          0.722              1.590              1.198
 Vibration    10          0.827              1.316              0.737
 Vibration    11          0.858              1.243              0.651
 Vibration    12          0.922              1.105              0.512
 Vibration    13          0.927              1.093              0.502

 Optimization completed.
    -- Stationary point found.
 Normal termination of Gaussian 16 at Mon May 23 20:00:11 2022.
