 Gaussian 16, Revision C.01,
 Gaussian 16:  ES64L-G16RevC.01  3-Jul-2019

 ----------------------------------------------------------------------
 # opt freq gen scrf=(iefpcm,solvent=thf) m06 EmpiricalDispersion=GD3 P
 seudo=Read
 ----------------------------------------------------------------------

 ------------------------------------------------------
 M06 (NCN)PtMe; Custom Lanl2tz(f)+6-311g(d,p) basis set
 ------------------------------------------------------
 Symbolic Z-matrix:
 Charge =  0 Multiplicity = 1

 SCF Done:  E(RM06) =  -894.118869064     A.U. after   15 cycles
 SCF Done:  E(RM06) =  -894.122064477     A.U. after   11 cycles
 SCF Done:  E(RM06) =  -894.121999466     A.U. after   10 cycles
 SCF Done:  E(RM06) =  -894.121468838     A.U. after   11 cycles
 SCF Done:  E(RM06) =  -894.122225613     A.U. after   10 cycles
 SCF Done:  E(RM06) =  -894.122265939     A.U. after    9 cycles
 SCF Done:  E(RM06) =  -894.122215413     A.U. after    9 cycles
 SCF Done:  E(RM06) =  -894.122264707     A.U. after    9 cycles
 SCF Done:  E(RM06) =  -894.122264572     A.U. after    8 cycles
 SCF Done:  E(RM06) =  -894.122274443     A.U. after    8 cycles
 SCF Done:  E(RM06) =  -894.122277285     A.U. after    7 cycles
 SCF Done:  E(RM06) =  -894.122277662     A.U. after    7 cycles
 SCF Done:  E(RM06) =  -894.122277861     A.U. after    7 cycles
 SCF Done:  E(RM06) =  -894.122277689     A.U. after    7 cycles
 SCF Done:  E(RM06) =  -894.122277959     A.U. after    6 cycles
 Optimization completed.
    -- Stationary point found.
 Normal termination of Gaussian 16 at Mon May 16 11:40:50 2022.

 ----------------------------------------------------------------
 #N Geom=AllCheck Guess=TCheck SCRF=Check GenChk RM06/ChkBas Freq
 ----------------------------------------------------------------

 Structure from the checkpoint file:  "NCNPtMe.chk"
 ------------------------------------------------------
 M06 (NCN)PtMe; Custom Lanl2tz(f)+6-311g(d,p) basis set
 ------------------------------------------------------
 Charge =  0 Multiplicity = 1

                         Standard orientation:
 ---------------------------------------------------------------------
 Center     Atomic      Atomic             Coordinates (Angstroms)
 Number     Number       Type             X           Y           Z
 ---------------------------------------------------------------------
      1         78           0        0.000013   -0.610662   -0.126517
      2          6           0       -0.000026    1.354577   -0.242221
      3          6           0        1.209837    2.031614   -0.219407
      4          6           0       -1.209916    2.031565   -0.219405
      5          6           0        1.214975    3.414631   -0.102315
      6          6           0       -1.215109    3.414583   -0.102312
      7          6           0       -0.000080    4.094738   -0.027760
      8          1           0        2.148941    3.973435   -0.074646
      9          1           0       -2.149096    3.973350   -0.074640
     10          1           0       -0.000102    5.175872    0.075690
     11          7           0       -2.122926   -0.274356   -0.004054
     12          7           0        2.122937   -0.274272   -0.004053
     13          6           0        0.000054   -2.771670    0.094915
     14          1           0       -0.877978   -3.169498    0.627889
     15          1           0        0.000062   -3.261629   -0.893149
     16          1           0        0.878103   -3.169465    0.627886
     17          6           0        2.389055    1.138860   -0.467562
     18          1           0        2.547553    1.076889   -1.550815
     19          1           0        3.325149    1.509956   -0.031639
     20          6           0       -2.389101    1.138766   -0.467557
     21          1           0       -2.547606    1.076792   -1.550809
     22          1           0       -3.325207    1.509821   -0.031622
     23          6           0       -2.856537   -1.266424   -0.845306
     24          6           0       -4.301995   -0.978596   -1.207886
     25          1           0       -2.770109   -2.226751   -0.328668
     26          1           0       -2.275256   -1.356018   -1.768747
     27          1           0       -4.655564   -1.796335   -1.842078
     28          1           0       -4.969973   -0.919095   -0.348995
     29          1           0       -4.408966   -0.058142   -1.787005
     30          6           0       -2.415865   -0.400401    1.457333
     31          6           0       -3.862024   -0.335537    1.906428
     32          1           0       -1.840080    0.396381    1.938446
     33          1           0       -1.974163   -1.346826    1.780093
     34          1           0       -3.873248   -0.279230    2.998270
     35          1           0       -4.392412    0.544468    1.532342
     36          1           0       -4.424006   -1.228429    1.624232
     37          6           0        2.415874   -0.400317    1.457335
     38          6           0        3.862045   -0.335653    1.906426
     39          1           0        1.974043   -1.346674    1.780118
     40          1           0        1.840201    0.396554    1.938435
     41          1           0        3.873278   -0.279296    2.998265
     42          1           0        4.423889   -1.228645    1.624275
     43          1           0        4.392570    0.544252    1.532300
     44          6           0        2.856583   -1.266315   -0.845303
     45          6           0        4.302031   -0.978434   -1.207886
     46          1           0        2.275304   -1.355931   -1.768744
     47          1           0        2.770192   -2.226644   -0.328662
     48          1           0        4.655630   -1.796162   -1.842076
     49          1           0        4.408967   -0.057978   -1.787008
     50          1           0        4.970007   -0.918906   -0.348996
 ---------------------------------------------------------------------

 SCF Done:  E(RM06) =  -894.122277959     A.U. after    1 cycles

 The electronic state is 1-A.
 Alpha  occ. eigenvalues --  -14.44560 -14.44559 -10.27234 -10.27234 -10.27011
 Alpha  occ. eigenvalues --  -10.27011 -10.26920 -10.26919 -10.23103 -10.23103
 Alpha  occ. eigenvalues --  -10.22897 -10.22897 -10.22711 -10.22711 -10.22573
 Alpha  occ. eigenvalues --  -10.22572 -10.22264 -10.19802 -10.16451  -3.86628
 Alpha  occ. eigenvalues --   -2.10605  -2.10038  -2.07673  -0.96607  -0.96205
 Alpha  occ. eigenvalues --   -0.86219  -0.79409  -0.78375  -0.78370  -0.77480
 Alpha  occ. eigenvalues --   -0.74737  -0.74132  -0.69399  -0.69279  -0.65144
 Alpha  occ. eigenvalues --   -0.65095  -0.63710  -0.60784  -0.60433  -0.57517
 Alpha  occ. eigenvalues --   -0.57247  -0.52117  -0.52009  -0.51152  -0.50409
 Alpha  occ. eigenvalues --   -0.50273  -0.47779  -0.47712  -0.46066  -0.44660
 Alpha  occ. eigenvalues --   -0.43444  -0.43432  -0.43085  -0.42601  -0.42299
 Alpha  occ. eigenvalues --   -0.41380  -0.41331  -0.41121  -0.40853  -0.40806
 Alpha  occ. eigenvalues --   -0.40477  -0.39159  -0.37685  -0.37573  -0.36727
 Alpha  occ. eigenvalues --   -0.36384  -0.36063  -0.35430  -0.34859  -0.34790
 Alpha  occ. eigenvalues --   -0.34763  -0.34151  -0.33774  -0.33261  -0.30088
 Alpha  occ. eigenvalues --   -0.27328  -0.25065  -0.23439  -0.22514  -0.21552
 Alpha  occ. eigenvalues --   -0.20871  -0.20009
 Alpha virt. eigenvalues --   -0.01574   0.00062   0.00159   0.00559   0.00787
 Alpha virt. eigenvalues --    0.01909   0.03747   0.06229   0.06613   0.07175
 Alpha virt. eigenvalues --    0.07232   0.07794   0.08066   0.08073   0.08652

 Mulliken charges:
               1
     1  Pt   0.774339
     2  C   -0.421198
     3  C    0.105081
     4  C    0.105084
     5  C   -0.197574
     6  C   -0.197576
     7  C   -0.074618
     8  H    0.065058
     9  H    0.065058
    10  H    0.060130
    11  N   -0.620421
    12  N   -0.620420
    13  C   -0.744523
    14  H    0.051723
    15  H    0.074088
    16  H    0.051723
    17  C   -0.063428
    18  H    0.144504
    19  H    0.114928
    20  C   -0.063429
    21  H    0.144502
    22  H    0.114924
    23  C   -0.073203
    24  C   -0.281006
    25  H    0.137890
    26  H    0.156393
    27  H    0.122251
    28  H    0.103333
    29  H    0.108075
    30  C   -0.062881
    31  C   -0.289333
    32  H    0.144571
    33  H    0.154659
    34  H    0.125090
    35  H    0.108593
    36  H    0.111593
    37  C   -0.062876
    38  C   -0.289343
    39  H    0.154666
    40  H    0.144562
    41  H    0.125091
    42  H    0.111599
    43  H    0.108592
    44  C   -0.073204
    45  C   -0.281012
    46  H    0.156393
    47  H    0.137888
    48  H    0.122250
    49  H    0.108075
    50  H    0.103339
 Sum of Mulliken charges =  -0.00000

 Dipole moment (field-independent basis, Debye):
    X=             -0.0000    Y=              1.1469    Z=              0.7293  Tot=              1.3591
 Quadrupole moment (field-independent basis, Debye-Ang):
   XX=           -112.9117   YY=           -156.9804   ZZ=           -141.2569
   XY=              0.0008   XZ=              0.0000   YZ=              0.8576

  Exact polarizability:     363.888      -0.001     378.278      -0.000       4.137     241.764
 Approx polarizability:     388.743      -0.001     422.073      -0.000       4.252     303.061

                      1                      2                      3
                      A                      A                      A
 Frequencies --     45.6710                51.9662                79.2986
 Red. masses --      3.9068                 3.0150                 3.0442
 Frc consts  --      0.0048                 0.0048                 0.0113
 IR Inten    --      3.6045                 0.0533                 0.9444

                      4                      5                      6
                      A                      A                      A
 Frequencies --     90.5156                97.2570               112.9668
 Red. masses --      1.9414                 1.3948                 2.1060
 Frc consts  --      0.0094                 0.0078                 0.0158
 IR Inten    --      0.2493                 0.6140                 0.9276

                      7                      8                      9
                      A                      A                      A
 Frequencies --    122.3939               131.1922               139.7671
 Red. masses --      1.3529                 2.6738                 1.7845
 Frc consts  --      0.0119                 0.0271                 0.0205
 IR Inten    --      0.0075                 0.6106                 0.0117

                     10                     11                     12
                      A                      A                      A
 Frequencies --    148.3622               156.0646               183.1520
 Red. masses --      3.1529                 2.2761                 2.8946
 Frc consts  --      0.0409                 0.0327                 0.0572
 IR Inten    --      0.1358                 1.3923                 0.0408

                     13                     14                     15
                      A                      A                      A
 Frequencies --    192.1025               210.1744               219.6450
 Red. masses --      2.1783                 2.3526                 3.2891
 Frc consts  --      0.0474                 0.0612                 0.0935
 IR Inten    --      2.3413                 2.5498                 0.6820

                     16                     17                     18
                      A                      A                      A
 Frequencies --    220.8977               229.7730               244.0650
 Red. masses --      1.8243                 3.0814                 2.5145
 Frc consts  --      0.0524                 0.0959                 0.0883
 IR Inten    --      0.5581                 0.0017                 3.3258

                     19                     20                     21
                      A                      A                      A
 Frequencies --    253.7405               255.1001               278.1365
 Red. masses --      3.9831                 3.1093                 2.0776
 Frc consts  --      0.1511                 0.1192                 0.0947
 IR Inten    --      6.0940                 5.2381                 2.4478

                     22                     23                     24
                      A                      A                      A
 Frequencies --    286.0865               306.4701               315.7511
 Red. masses --      1.9272                 1.7477                 1.9601
 Frc consts  --      0.0929                 0.0967                 0.1151
 IR Inten    --      2.5468                 0.7381                 0.1210

                     25                     26                     27
                      A                      A                      A
 Frequencies --    327.0123               332.5852               370.0346
 Red. masses --      2.3786                 1.9414                 2.6034
 Frc consts  --      0.1499                 0.1265                 0.2100
 IR Inten    --      0.2332                 2.2154                 3.1447

                     28                     29                     30
                      A                      A                      A
 Frequencies --    374.0234               422.9145               424.2579
 Red. masses --      2.8566                 2.0523                 2.2092
 Frc consts  --      0.2354                 0.2163                 0.2343
 IR Inten    --      0.7453                 4.5021                 2.1146

                     31                     32                     33
                      A                      A                      A
 Frequencies --    451.8824               452.3063               484.4636
 Red. masses --      2.6387                 3.6227                 3.6174
 Frc consts  --      0.3175                 0.4367                 0.5002
 IR Inten    --      3.3206                74.3108                 2.7739

                     34                     35                     36
                      A                      A                      A
 Frequencies --    505.1454               506.7659               600.6007
 Red. masses --      3.5110                 3.2124                 4.3809
 Frc consts  --      0.5279                 0.4861                 0.9311
 IR Inten    --      6.4784                 3.0137                17.6368

                     37                     38                     39
                      A                      A                      A
 Frequencies --    609.2205               645.1149               647.0609
 Red. masses --      3.2462                 2.9052                 1.4052
 Frc consts  --      0.7099                 0.7124                 0.3466
 IR Inten    --      0.7228                12.1445                14.3907

                     40                     41                     42
                      A                      A                      A
 Frequencies --    658.8564               705.7785               733.3030
 Red. masses --      3.1339                 1.2353                 3.1316
 Frc consts  --      0.8015                 0.3625                 0.9922
 IR Inten    --      0.8913                 3.3159                12.3485

                     43                     44                     45
                      A                      A                      A
 Frequencies --    754.6046               764.4855               765.0509
 Red. masses --      1.4088                 1.7361                 1.8268
 Frc consts  --      0.4726                 0.5978                 0.6300
 IR Inten    --     22.4120                57.1439                15.5316

                     46                     47                     48
                      A                      A                      A
 Frequencies --    780.9174               781.2119               796.1709
 Red. masses --      1.2940                 1.2379                 1.7312
 Frc consts  --      0.4649                 0.4451                 0.6466
 IR Inten    --      3.3911                10.4768                21.9293

                     49                     50                     51
                      A                      A                      A
 Frequencies --    803.1293               822.4064               887.8976
 Red. masses --      1.7313                 3.1303                 1.8571
 Frc consts  --      0.6579                 1.2474                 0.8626
 IR Inten    --     15.1699                10.5929                10.5455

                     52                     53                     54
                      A                      A                      A
 Frequencies --    900.9912               903.3698               933.8722
 Red. masses --      1.4871                 2.0766                 2.2374
 Frc consts  --      0.7112                 0.9985                 1.1497
 IR Inten    --      0.1921                 0.6515                10.5366

                     55                     56                     57
                      A                      A                      A
 Frequencies --    937.2156               949.7308               983.8323
 Red. masses --      2.2116                 1.3170                 2.0689
 Frc consts  --      1.1445                 0.6999                 1.1798
 IR Inten    --      9.2895                 0.0714                 6.1145

                     58                     59                     60
                      A                      A                      A
 Frequencies --    987.0900              1023.7983              1043.1945
 Red. masses --      1.9093                 3.0894                 2.4840
 Frc consts  --      1.0961                 1.9079                 1.5927
 IR Inten    --     14.7044                 1.6800                82.4358

                     61                     62                     63
                      A                      A                      A
 Frequencies --   1044.0797              1053.3689              1068.3049
 Red. masses --      2.5454                 2.6654                 2.3494
 Frc consts  --      1.6349                 1.7425                 1.5798
 IR Inten    --     32.5752                12.9055                12.4352

                     64                     65                     66
                      A                      A                      A
 Frequencies --   1068.3787              1086.2973              1088.3007
 Red. masses --      2.3346                 1.8263                 1.8243
 Frc consts  --      1.5701                 1.2697                 1.2731
 IR Inten    --      0.1333                 4.2903                44.6018

                     67                     68                     69
                      A                      A                      A
 Frequencies --   1108.2768              1111.8065              1112.3847
 Red. masses --      2.7130                 2.1238                 2.0990
 Frc consts  --      1.9634                 1.5468                 1.5303
 IR Inten    --      0.5705                10.6557                 9.2732

                     70                     71                     72
                      A                      A                      A
 Frequencies --   1154.4183              1161.1783              1161.8096
 Red. masses --      1.2548                 1.9117                 1.8679
 Frc consts  --      0.9853                 1.5187                 1.4855
 IR Inten    --      0.0465                35.5816                 0.0014

                     73                     74                     75
                      A                      A                      A
 Frequencies --   1187.7836              1195.5247              1198.6543
 Red. masses --      1.2382                 2.0029                 1.9407
 Frc consts  --      1.0292                 1.6867                 1.6428
 IR Inten    --      2.5594                 5.9061                 6.1657

                     76                     77                     78
                      A                      A                      A
 Frequencies --   1216.7488              1233.5622              1270.6789
 Red. masses --      1.5191                 1.6257                 1.2124
 Frc consts  --      1.3251                 1.4575                 1.1533
 IR Inten    --      0.8210                 2.4934                 6.2252

                     79                     80                     81
                      A                      A                      A
 Frequencies --   1278.9593              1315.2816              1319.3777
 Red. masses --      1.3773                 1.4958                 1.4975
 Frc consts  --      1.3274                 1.5246                 1.5359
 IR Inten    --      1.9701                 2.9989                18.7815

                     82                     83                     84
                      A                      A                      A
 Frequencies --   1341.3388              1348.9493              1349.8300
 Red. masses --      2.2656                 1.2304                 1.2530
 Frc consts  --      2.4016                 1.3191                 1.3452
 IR Inten    --      0.1296                 2.3098                 2.3578

                     85                     86                     87
                      A                      A                      A
 Frequencies --   1353.0955              1354.3698              1358.6363
 Red. masses --      1.3120                 1.2598                 1.4407
 Frc consts  --      1.4153                 1.3615                 1.5668
 IR Inten    --      7.5830                 0.9209                 3.7922

                     88                     89                     90
                      A                      A                      A
 Frequencies --   1359.5903              1375.8499              1376.0356
 Red. masses --      1.5817                 1.2727                 1.2721
 Frc consts  --      1.7227                 1.4194                 1.4191
 IR Inten    --     29.7085                10.5613                 5.7775

                     91                     92                     93
                      A                      A                      A
 Frequencies --   1385.5691              1385.6955              1393.9332
 Red. masses --      1.2662                 1.2670                 1.2775
 Frc consts  --      1.4323                 1.4334                 1.4625
 IR Inten    --      0.2092                25.7891                 0.3816

                     94                     95                     96
                      A                      A                      A
 Frequencies --   1394.3061              1436.6820              1439.4534
 Red. masses --      1.2617                 1.0657                 1.1200
 Frc consts  --      1.4452                 1.2960                 1.3673
 IR Inten    --     55.5684                10.1002                 3.1055

                     97                     98                     99
                      A                      A                      A
 Frequencies --   1442.3131              1442.8783              1443.4234
 Red. masses --      1.0686                 1.0700                 1.0687
 Frc consts  --      1.3097                 1.3125                 1.3118
 IR Inten    --      0.1845                 6.7892                 2.1649

                    100                    101                    102
                      A                      A                      A
 Frequencies --   1444.5436              1450.5112              1453.3397
 Red. masses --      2.4266                 1.0688                 1.0767
 Frc consts  --      2.9834                 1.3250                 1.3399
 IR Inten    --     26.3966                 7.7247                 3.5763

                    103                    104                    105
                      A                      A                      A
 Frequencies --   1453.4966              1458.9685              1459.7736
 Red. masses --      1.0683                 1.0578                 1.0756
 Frc consts  --      1.3298                 1.3267                 1.3504
 IR Inten    --      9.6940                 0.6877                 8.8517

                    106                    107                    108
                      A                      A                      A
 Frequencies --   1462.8690              1462.9126              1476.0221
 Red. masses --      1.0482                 1.0489                 1.0704
 Frc consts  --      1.3217                 1.3225                 1.3739
 IR Inten    --      4.0736                18.2821                 5.9157

                    109                    110                    111
                      A                      A                      A
 Frequencies --   1476.5408              1479.7213              1479.8084
 Red. masses --      1.0708                 1.0564                 1.0549
 Frc consts  --      1.3755                 1.3628                 1.3610
 IR Inten    --      7.3303                 0.8569                26.5072

                    112                    113                    114
                      A                      A                      A
 Frequencies --   1493.1444              1622.6895              1627.1523
 Red. masses --      2.9200                 6.3566                 8.0137
 Frc consts  --      3.8356                 9.8616                12.5008
 IR Inten    --      3.4628                28.3811                 0.8038

                    115                    116                    117
                      A                      A                      A
 Frequencies --   2939.4293              3005.7355              3008.8047
 Red. masses --      1.0341                 1.0987                 1.0585
 Frc consts  --      5.2645                 5.8481                 5.6460
 IR Inten    --    168.1420                86.1298                89.3746

                    118                    119                    120
                      A                      A                      A
 Frequencies --   3009.2279              3010.2990              3026.0530
 Red. masses --      1.0583                 1.0999                 1.0383
 Frc consts  --      5.6464                 5.8723                 5.6016
 IR Inten    --     16.4852               132.9747                45.8447

                    121                    122                    123
                      A                      A                      A
 Frequencies --   3026.1793              3033.8945              3034.3639
 Red. masses --      1.0384                 1.0585                 1.0584
 Frc consts  --      5.6027                 5.7404                 5.7416
 IR Inten    --     10.2560                13.5440                36.8861

                    124                    125                    126
                      A                      A                      A
 Frequencies --   3036.6362              3036.7235              3041.6044
 Red. masses --      1.0442                 1.0441                 1.0618
 Frc consts  --      5.6730                 5.6730                 5.7878
 IR Inten    --     56.0882                 6.3552                 4.5661

                    127                    128                    129
                      A                      A                      A
 Frequencies --   3041.7008              3055.4483              3055.6793
 Red. masses --      1.0614                 1.1038                 1.1037
 Frc consts  --      5.7860                 6.0712                 6.0719
 IR Inten    --     12.8411                23.6993                22.2360

                    130                    131                    132
                      A                      A                      A
 Frequencies --   3084.6535              3084.6890              3087.6049
 Red. masses --      1.1032                 1.1031                 1.1032
 Frc consts  --      6.1845                 6.1843                 6.1964
 IR Inten    --      6.5247                 0.3795                 2.6828

                    133                    134                    135
                      A                      A                      A
 Frequencies --   3087.7539              3100.4636              3100.5052
 Red. masses --      1.1032                 1.1004                 1.1004
 Frc consts  --      6.1972                 6.2323                 6.2324
 IR Inten    --      2.0672                 5.6178                55.9842

                    136                    137                    138
                      A                      A                      A
 Frequencies --   3104.3562              3104.3891              3115.7411
 Red. masses --      1.0997                 1.0997                 1.1040
 Frc consts  --      6.2440                 6.2440                 6.3146
 IR Inten    --      0.0886                70.8763                62.9941

                    139                    140                    141
                      A                      A                      A
 Frequencies --   3115.7622              3120.8125              3124.0467
 Red. masses --      1.1040                 1.0867                 1.0902
 Frc consts  --      6.3148                 6.2359                 6.2686
 IR Inten    --      1.4417                21.7204                51.0644

                    142                    143                    144
                      A                      A                      A
 Frequencies --   3140.8376              3140.8657              3156.3917
 Red. masses --      1.0994                 1.0994                 1.0940
 Frc consts  --      6.3902                 6.3903                 6.4219
 IR Inten    --     20.4662                28.7678                62.9819

 - Thermochemistry -
 -------------------
 Temperature   298.150 Kelvin.  Pressure   1.00000 Atm.
 Atom     1 has atomic number 78 and mass 194.96480

 Molecular mass:   457.20570 amu.
 Principal axes and moments of inertia in atomic units:
                           1         2         3
     Eigenvalues --  4512.014857389.502889977.44021
           X            1.00000   0.00000   0.00000
           Y           -0.00000   1.00000  -0.00127
           Z           -0.00000   0.00127   1.00000
 This molecule is an asymmetric top.
 Rotational symmetry number  1.
 Warning -- assumption of classical behavior for rotation
           may cause significant error
 Rotational temperatures (Kelvin)      0.01920     0.01172     0.00868
 Rotational constants (GHZ):           0.39999     0.24423     0.18088
 Zero-point vibrational energy    1155533.5 (Joules/Mol)
                                  276.17914 (Kcal/Mol)
 Warning -- explicit consideration of  37 degrees of freedom as
           vibrations may cause significant error
 Vibrational temperatures:     65.71    74.77   114.09   130.23   139.93
          (Kelvin)            162.53   176.10   188.76   201.09   213.46
                              224.54   263.51   276.39   302.39   316.02
                              317.82   330.59   351.16   365.08   367.03
                              400.18   411.61   440.94   454.30   470.50
                              478.52   532.40   538.14   608.48   610.41
                              650.16   650.77   697.04   726.79   729.12
                              864.13   876.53   928.18   930.98   947.95
                             1015.46  1055.06  1085.71  1099.92  1100.74
                             1123.57  1123.99  1145.51  1155.52  1183.26
                             1277.49  1296.33  1299.75  1343.63  1348.44
                             1366.45  1415.52  1420.20  1473.02  1500.92
                             1502.20  1515.56  1537.05  1537.16  1562.94
                             1565.82  1594.56  1599.64  1600.47  1660.95
                             1670.68  1671.58  1708.96  1720.09  1724.60
                             1750.63  1774.82  1828.22  1840.14  1892.40
                             1898.29  1929.89  1940.84  1942.10  1946.80
                             1948.64  1954.77  1956.15  1979.54  1979.81
                             1993.52  1993.71  2005.56  2006.10  2067.06
                             2071.05  2075.17  2075.98  2076.76  2078.38
                             2086.96  2091.03  2091.26  2099.13  2100.29
                             2104.74  2104.80  2123.67  2124.41  2128.99
                             2129.11  2148.30  2334.69  2341.11  4229.18
                             4324.58  4329.00  4329.61  4331.15  4353.82
                             4354.00  4365.10  4365.77  4369.04  4369.17
                             4376.19  4376.33  4396.11  4396.44  4438.13
                             4438.18  4442.37  4442.59  4460.88  4460.94
                             4466.48  4466.52  4482.86  4482.89  4490.15
                             4494.81  4518.96  4519.01  4541.34

 Zero-point correction=                           0.440119 (Hartree/Particle)
 Thermal correction to Energy=                    0.463258
 Thermal correction to Enthalpy=                  0.464202
 Thermal correction to Gibbs Free Energy=         0.389673
 Sum of electronic and zero-point Energies=           -893.682158
 Sum of electronic and thermal Energies=              -893.659020
 Sum of electronic and thermal Enthalpies=            -893.658076
 Sum of electronic and thermal Free Energies=         -893.732605

                     E (Thermal)             CV                S
                      KCal/Mol        Cal/Mol-Kelvin    Cal/Mol-Kelvin
 Total                  290.699             90.183            156.860
 Electronic               0.000              0.000              0.000
 Translational            0.889              2.981             44.249
 Rotational               0.889              2.981             34.164
 Vibrational            288.921             84.221             78.447
 Vibration     1          0.595              1.979              4.997
 Vibration     2          0.596              1.977              4.741
 Vibration     3          0.600              1.963              3.908
 Vibration     4          0.602              1.956              3.649
 Vibration     5          0.603              1.951              3.509
 Vibration     6          0.607              1.939              3.217
 Vibration     7          0.610              1.930              3.062
 Vibration     8          0.612              1.922              2.928
 Vibration     9          0.615              1.914              2.807
 Vibration    10          0.618              1.904              2.693
 Vibration    11          0.620              1.896              2.597
 Vibration    12          0.631              1.863              2.296
 Vibration    13          0.634              1.851              2.207
 Vibration    14          0.642              1.825              2.042
 Vibration    15          0.647              1.811              1.962
 Vibration    16          0.648              1.809              1.952
 Vibration    17          0.652              1.796              1.881
 Vibration    18          0.659              1.773              1.773
 Vibration    19          0.665              1.756              1.704
 Vibration    20          0.665              1.754              1.695
 Vibration    21          0.679              1.714              1.545
 Vibration    22          0.684              1.700              1.497
 Vibration    23          0.697              1.661              1.381
 Vibration    24          0.703              1.644              1.332
 Vibration    25          0.711              1.621              1.275
 Vibration    26          0.715              1.610              1.247
 Vibration    27          0.742              1.534              1.080
 Vibration    28          0.745              1.525              1.063
 Vibration    29          0.785              1.420              0.882
 Vibration    30          0.786              1.417              0.878
 Vibration    31          0.811              1.357              0.790
 Vibration    32          0.811              1.356              0.789
 Vibration    33          0.841              1.285              0.698
 Vibration    34          0.860              1.239              0.645
 Vibration    35          0.862              1.235              0.641
 Vibration    36          0.959              1.031              0.449
 Vibration    37          0.968              1.012              0.434

 Optimization completed.
    -- Stationary point found.
 Normal termination of Gaussian 16 at Mon May 16 16:59:41 2022.
