 Gaussian 16, Revision C.01,
 Gaussian 16:  ES64L-G16RevC.01  3-Jul-2019

 ----------------------------------------------------------------------
 # opt freq gen scrf=(iefpcm,solvent=thf) m06 EmpiricalDispersion=GD3 P
 seudo=Read
 ----------------------------------------------------------------------

 ----------------------------------------------------
 M06 (NCN)Pt; Custom Lanl2tz(f)+6-311g(d,p) basis set
 ----------------------------------------------------
 Symbolic Z-matrix:
 Charge =  1 Multiplicity = 1

 SCF Done:  E(RM06) =  -854.102029516     A.U. after   15 cycles
 SCF Done:  E(RM06) =  -854.105486029     A.U. after   11 cycles
 SCF Done:  E(RM06) =  -854.105587002     A.U. after   10 cycles
 SCF Done:  E(RM06) =  -854.105290412     A.U. after   10 cycles
 SCF Done:  E(RM06) =  -854.105768697     A.U. after    9 cycles
 SCF Done:  E(RM06) =  -854.105775458     A.U. after    8 cycles
 SCF Done:  E(RM06) =  -854.105776670     A.U. after    8 cycles
 SCF Done:  E(RM06) =  -854.105777336     A.U. after    7 cycles
 SCF Done:  E(RM06) =  -854.105777314     A.U. after    7 cycles
 Optimization completed.
    -- Stationary point found.
 Normal termination of Gaussian 16 at Fri May 13 15:04:04 2022.

 ----------------------------------------------------------------
 #N Geom=AllCheck Guess=TCheck SCRF=Check GenChk RM06/ChkBas Freq
 ----------------------------------------------------------------

 Structure from the checkpoint file:  "lanl2tz_thf_m06_opt_NCNPt.chk"
 ----------------------------------------------------
 M06 (NCN)Pt; Custom Lanl2tz(f)+6-311g(d,p) basis set
 ----------------------------------------------------
 Charge =  1 Multiplicity = 1

                         Standard orientation:
 ---------------------------------------------------------------------
 Center     Atomic      Atomic             Coordinates (Angstroms)
 Number     Number       Type             X           Y           Z
 ---------------------------------------------------------------------
      1         78           0       -0.000001   -0.659461   -0.115486
      2          6           0        0.000016    1.240998   -0.176786
      3          6           0        1.222061    1.889088   -0.188480
      4          6           0       -1.222018    1.889110   -0.188494
      5          6           0        1.214660    3.274994   -0.118917
      6          6           0       -1.214593    3.275016   -0.118931
      7          6           0        0.000039    3.952577   -0.063886
      8          1           0        2.148416    3.831223   -0.119293
      9          1           0       -2.148339    3.831260   -0.119318
     10          1           0        0.000048    5.035629    0.001210
     11          7           0       -2.113468   -0.409713    0.009974
     12          7           0        2.113469   -0.409750    0.010002
     13          6           0        2.401525    1.000237   -0.433964
     14          1           0        2.577378    0.958812   -1.514578
     15          1           0        3.325947    1.365726    0.026155
     16          6           0       -2.401495    1.000280   -0.433993
     17          1           0       -2.577334    0.958859   -1.514610
     18          1           0       -3.325916    1.365784    0.026114
     19          6           0       -2.789684   -1.423816   -0.857589
     20          6           0       -4.238295   -1.187904   -1.237922
     21          1           0       -2.674712   -2.383822   -0.341822
     22          1           0       -2.193977   -1.478189   -1.774640
     23          1           0       -4.548089   -2.005312   -1.893863
     24          1           0       -4.919734   -1.171831   -0.388595
     25          1           0       -4.369487   -0.261178   -1.801261
     26          6           0       -2.423438   -0.574371    1.468496
     27          6           0       -3.877512   -0.549968    1.889170
     28          1           0       -1.871492    0.221579    1.977616
     29          1           0       -1.973327   -1.522492    1.779626
     30          1           0       -3.909955   -0.504671    2.980499
     31          1           0       -4.419544    0.321852    1.513894
     32          1           0       -4.411753   -1.452531    1.587113
     33          6           0        2.423409   -0.574411    1.468531
     34          6           0        3.877472   -0.550020    1.889247
     35          1           0        1.973281   -1.522525    1.779653
     36          1           0        1.871460    0.221546    1.977636
     37          1           0        3.909882   -0.504701    2.980576
     38          1           0        4.411709   -1.452597    1.587226
     39          1           0        4.419527    0.321785    1.513971
     40          6           0        2.789671   -1.423864   -0.857561
     41          6           0        4.238232   -1.187888   -1.238045
     42          1           0        2.193885   -1.478317   -1.774556
     43          1           0        2.674796   -2.383850   -0.341735
     44          1           0        4.548007   -2.005308   -1.893980
     45          1           0        4.369315   -0.261181   -1.801441
     46          1           0        4.919755   -1.171738   -0.388789
 ---------------------------------------------------------------------

 SCF Done:  E(RM06) =  -854.105777314     A.U. after    1 cycles

 The electronic state is 1-A.
 Alpha  occ. eigenvalues --  -14.47763 -14.47762 -10.30264 -10.30263 -10.29877
 Alpha  occ. eigenvalues --  -10.29876 -10.29717 -10.29716 -10.27031 -10.26532
 Alpha  occ. eigenvalues --  -10.26525 -10.25684 -10.25682 -10.25205 -10.24930
 Alpha  occ. eigenvalues --  -10.24930 -10.24801 -10.24800  -3.91855  -2.16100
 Alpha  occ. eigenvalues --   -2.15552  -2.12619  -0.99839  -0.99343  -0.90090
 Alpha  occ. eigenvalues --   -0.82870  -0.80816  -0.80809  -0.80511  -0.77268
 Alpha  occ. eigenvalues --   -0.76958  -0.72878  -0.72188  -0.67455  -0.67368
 Alpha  occ. eigenvalues --   -0.64078  -0.63610  -0.60578  -0.60546  -0.55446
 Alpha  occ. eigenvalues --   -0.54888  -0.54027  -0.53184  -0.53046  -0.50873
 Alpha  occ. eigenvalues --   -0.50526  -0.49116  -0.47240  -0.45873  -0.45856
 Alpha  occ. eigenvalues --   -0.45687  -0.45619  -0.45222  -0.44040  -0.43761
 Alpha  occ. eigenvalues --   -0.43559  -0.43463  -0.43073  -0.42627  -0.42459
 Alpha  occ. eigenvalues --   -0.39869  -0.39808  -0.39297  -0.38880  -0.38622
 Alpha  occ. eigenvalues --   -0.38173  -0.37837  -0.36882  -0.36736  -0.36064
 Alpha  occ. eigenvalues --   -0.33361  -0.32586  -0.29070  -0.27924  -0.27520
 Alpha  occ. eigenvalues --   -0.25769  -0.24543
 Alpha virt. eigenvalues --   -0.06055  -0.04311  -0.03056  -0.02955  -0.01032
 Alpha virt. eigenvalues --   -0.01008   0.00897   0.02232   0.04458   0.05005
 Alpha virt. eigenvalues --    0.05581   0.05748   0.06246   0.06396   0.06964

 Mulliken charges:
               1
     1  Pt   0.950781
     2  C   -0.390193
     3  C    0.095654
     4  C    0.095655
     5  C   -0.174061
     6  C   -0.174060
     7  C   -0.065076
     8  H    0.086964
     9  H    0.086964
    10  H    0.081490
    11  N   -0.640039
    12  N   -0.640038
    13  C   -0.071909
    14  H    0.165083
    15  H    0.139229
    16  C   -0.071908
    17  H    0.165085
    18  H    0.139229
    19  C   -0.098878
    20  C   -0.288106
    21  H    0.152385
    22  H    0.167296
    23  H    0.131118
    24  H    0.113088
    25  H    0.117039
    26  C   -0.076079
    27  C   -0.292685
    28  H    0.159330
    29  H    0.154805
    30  H    0.134762
    31  H    0.118012
    32  H    0.118486
    33  C   -0.076081
    34  C   -0.292691
    35  H    0.154805
    36  H    0.159330
    37  H    0.134765
    38  H    0.118490
    39  H    0.118011
    40  C   -0.098871
    41  C   -0.288111
    42  H    0.167297
    43  H    0.152383
    44  H    0.131120
    45  H    0.117037
    46  H    0.113092
 Sum of Mulliken charges =   1.00000

 Dipole moment (field-independent basis, Debye):
    X=             -0.0000    Y=             -3.5241    Z=              0.4616  Tot=              3.5542
 Quadrupole moment (field-independent basis, Debye-Ang):
   XX=            -88.1354   YY=           -115.9270   ZZ=           -126.6428
   XY=             -0.0002   XZ=              0.0000   YZ=             -0.0690

  Exact polarizability:     341.211      -0.000     324.825       0.000       3.454     223.182
 Approx polarizability:     364.219       0.000     376.529       0.000       2.430     272.567

                      1                      2                      3
                      A                      A                      A
 Frequencies --     22.7954                63.2273                67.0511
 Red. masses --      3.0496                 3.7360                 3.7683
 Frc consts  --      0.0009                 0.0088                 0.0100
 IR Inten    --      0.2107                 0.3389                 1.3086

                      4                      5                      6
                      A                      A                      A
 Frequencies --    115.7621               121.6885               136.7901
 Red. masses --      1.9248                 1.5403                 2.2363
 Frc consts  --      0.0152                 0.0134                 0.0247
 IR Inten    --      0.0472                 0.0300                 0.2776

                      7                      8                      9
                      A                      A                      A
 Frequencies --    143.4822               162.8486               163.4690
 Red. masses --      1.7728                 2.4520                 2.9989
 Frc consts  --      0.0215                 0.0383                 0.0472
 IR Inten    --      0.9976                 1.0758                 0.1033

                     10                     11                     12
                      A                      A                      A
 Frequencies --    191.4655               198.7978               225.6568
 Red. masses --      2.7843                 5.2890                 2.2381
 Frc consts  --      0.0601                 0.1232                 0.0671
 IR Inten    --      1.7374                 6.7839                 2.4464

                     13                     14                     15
                      A                      A                      A
 Frequencies --    234.5884               236.2396               244.2040
 Red. masses --      2.8574                 2.0046                 2.3697
 Frc consts  --      0.0926                 0.0659                 0.0833
 IR Inten    --      0.0543                 0.2299                10.1108

                     16                     17                     18
                      A                      A                      A
 Frequencies --    258.8799               270.3875               291.8531
 Red. masses --      3.4834                 2.4453                 1.6356
 Frc consts  --      0.1375                 0.1053                 0.0821
 IR Inten    --      3.5354                 2.8589                 1.7916

                     19                     20                     21
                      A                      A                      A
 Frequencies --    292.2947               312.0423               324.1624
 Red. masses --      1.6958                 2.3251                 2.7049
 Frc consts  --      0.0854                 0.1334                 0.1675
 IR Inten    --      7.3685                 0.0205                 0.3214

                     22                     23                     24
                      A                      A                      A
 Frequencies --    335.8747               340.1994               371.4958
 Red. masses --      2.3138                 2.1563                 2.5046
 Frc consts  --      0.1538                 0.1470                 0.2037
 IR Inten    --      0.2560                 3.2322                 2.1526

                     25                     26                     27
                      A                      A                      A
 Frequencies --    379.5484               428.4855               433.8312
 Red. masses --      2.5650                 2.0870                 2.2090
 Frc consts  --      0.2177                 0.2258                 0.2450
 IR Inten    --      0.3138                 4.9867                 0.3785

                     28                     29                     30
                      A                      A                      A
 Frequencies --    450.5311               482.3299               500.5724
 Red. masses --      2.7458                 3.7729                 3.5440
 Frc consts  --      0.3284                 0.5171                 0.5232
 IR Inten    --      1.5259                 1.5178                 5.4097

                     31                     32                     33
                      A                      A                      A
 Frequencies --    502.6084               598.9964               621.2842
 Red. masses --      3.5635                 5.1290                 3.5275
 Frc consts  --      0.5304                 1.0843                 0.8022
 IR Inten    --      1.4099                 5.9557                 2.3111

                     34                     35                     36
                      A                      A                      A
 Frequencies --    658.8963               669.3486               715.1896
 Red. masses --      2.6505                 3.2708                 3.8490
 Frc consts  --      0.6780                 0.8634                 1.1599
 IR Inten    --     12.7404                 4.9000                 5.5678

                     37                     38                     39
                      A                      A                      A
 Frequencies --    765.0843               773.6202               775.3688
 Red. masses --      1.3732                 2.4747                 2.1969
 Frc consts  --      0.4736                 0.8726                 0.7782
 IR Inten    --     20.6091                15.4958                76.2425

                     40                     41                     42
                      A                      A                      A
 Frequencies --    792.7425               792.8072               806.7286
 Red. masses --      1.2012                 1.1904                 1.7019
 Frc consts  --      0.4448                 0.4408                 0.6526
 IR Inten    --      8.2065                 5.1716                35.5556

                     43                     44                     45
                      A                      A                      A
 Frequencies --    817.3089               830.8313               890.0761
 Red. masses --      1.5163                 2.3961                 1.9078
 Frc consts  --      0.5968                 0.9745                 0.8905
 IR Inten    --     12.9599                10.1715                15.7626

                     46                     47                     48
                      A                      A                      A
 Frequencies --    907.7612               908.8423               946.5199
 Red. masses --      2.1387                 1.4787                 2.2118
 Frc consts  --      1.0384                 0.7196                 1.1675
 IR Inten    --      1.7775                 0.1194                 7.4003

                     49                     50                     51
                      A                      A                      A
 Frequencies --    951.2132               969.6553               989.2421
 Red. masses --      2.1976                 1.3615                 2.0321
 Frc consts  --      1.1716                 0.7542                 1.1717
 IR Inten    --      3.1227                 0.9788                 2.9371

                     52                     53                     54
                      A                      A                      A
 Frequencies --    991.8067              1024.5246              1047.6741
 Red. masses --      1.8376                 3.1743                 2.5062
 Frc consts  --      1.0650                 1.9631                 1.6208
 IR Inten    --     20.4791                 0.9682                62.7685

                     55                     56                     57
                      A                      A                      A
 Frequencies --   1048.9594              1059.6073              1073.6681
 Red. masses --      2.5746                 2.6148                 2.2859
 Frc consts  --      1.6691                 1.7297                 1.5525
 IR Inten    --     44.7544                28.4429                 1.2674

                     58                     59                     60
                      A                      A                      A
 Frequencies --   1074.1131              1087.9293              1090.5709
 Red. masses --      2.3270                 1.8997                 1.8879
 Frc consts  --      1.5818                 1.3248                 1.3229
 IR Inten    --     19.3229                 7.1279                42.5871

                     61                     62                     63
                      A                      A                      A
 Frequencies --   1115.0838              1120.1327              1121.0348
 Red. masses --      2.8799                 2.1578                 2.1378
 Frc consts  --      2.1098                 1.5951                 1.5829
 IR Inten    --     45.0487                12.0837                 5.9759

                     64                     65                     66
                      A                      A                      A
 Frequencies --   1158.9492              1161.2040              1164.9915
 Red. masses --      1.5472                 1.8702                 1.4218
 Frc consts  --      1.2244                 1.4857                 1.1369
 IR Inten    --      0.5035                32.5684                 0.3410

                     67                     68                     69
                      A                      A                      A
 Frequencies --   1199.8809              1203.0204              1225.4485
 Red. masses --      2.0448                 2.0731                 1.4848
 Frc consts  --      1.7345                 1.7677                 1.3137
 IR Inten    --      8.3493                17.6405                 0.0152

                     70                     71                     72
                      A                      A                      A
 Frequencies --   1242.0873              1279.1929              1288.9653
 Red. masses --      1.5208                 1.2526                 1.4687
 Frc consts  --      1.3823                 1.2077                 1.4377
 IR Inten    --      4.2237                 4.2009                 3.1119

                     73                     74                     75
                      A                      A                      A
 Frequencies --   1321.2159              1335.8884              1344.9842
 Red. masses --      2.2580                 1.4609                 1.5992
 Frc consts  --      2.3224                 1.5360                 1.7045
 IR Inten    --      0.3771                13.8455                 0.4735

                     76                     77                     78
                      A                      A                      A
 Frequencies --   1360.6631              1362.3827              1363.3757
 Red. masses --      1.2193                 1.3233                 1.4482
 Frc consts  --      1.3300                 1.4471                 1.5861
 IR Inten    --      4.8165                13.3749                 7.9453

                     79                     80                     81
                      A                      A                      A
 Frequencies --   1364.4820              1385.5369              1385.9926
 Red. masses --      1.5469                 1.1678                 1.1717
 Frc consts  --      1.6968                 1.3209                 1.3261
 IR Inten    --     14.7080                 0.0840                 3.4670

                     82                     83                     84
                      A                      A                      A
 Frequencies --   1392.1000              1392.3893              1399.0932
 Red. masses --      1.2454                 1.2469                 1.2342
 Frc consts  --      1.4220                 1.4244                 1.4234
 IR Inten    --      0.1050                25.6466                 3.3567

                     85                     86                     87
                      A                      A                      A
 Frequencies --   1399.2765              1404.6203              1405.7628
 Red. masses --      1.2112                 1.2602                 1.2564
 Frc consts  --      1.3973                 1.4649                 1.4629
 IR Inten    --      0.8037                83.1380                 0.6216

                     88                     89                     90
                      A                      A                      A
 Frequencies --   1443.3082              1443.6058              1451.4713
 Red. masses --      1.0782                 1.0855                 1.0875
 Frc consts  --      1.3233                 1.3328                 1.3498
 IR Inten    --      6.2093                10.7592                 1.4633

                     91                     92                     93
                      A                      A                      A
 Frequencies --   1451.6061              1456.8734              1457.7419
 Red. masses --      1.1317                 1.3577                 1.0664
 Frc consts  --      1.4050                 1.6978                 1.3352
 IR Inten    --     18.0077                47.8869                 9.6985

                     94                     95                     96
                      A                      A                      A
 Frequencies --   1460.6202              1461.8824              1462.5259
 Red. masses --      1.4569                 1.0493                 1.1465
 Frc consts  --      1.8313                 1.3213                 1.4448
 IR Inten    --      8.3380                 4.4725                17.0056

                     97                     98                     99
                      A                      A                      A
 Frequencies --   1466.9543              1467.7645              1477.6757
 Red. masses --      1.0617                 1.1042                 1.0747
 Frc consts  --      1.3461                 1.4016                 1.3826
 IR Inten    --      1.4326                12.5387                11.1569

                    100                    101                    102
                      A                      A                      A
 Frequencies --   1478.3241              1481.9895              1482.1109
 Red. masses --      1.0793                 1.0539                 1.0540
 Frc consts  --      1.3898                 1.3638                 1.3642
 IR Inten    --     14.3448                 2.5556                24.0129

                    103                    104                    105
                      A                      A                      A
 Frequencies --   1497.6570              1622.6475              1643.1512
 Red. masses --      2.9538                 6.4829                 8.1524
 Frc consts  --      3.9036                10.0569                12.9685
 IR Inten    --     10.4372                32.4719                 2.8007

                    106                    107                    108
                      A                      A                      A
 Frequencies --   3004.1625              3004.5014              3025.0102
 Red. masses --      1.0693                 1.0693                 1.0600
 Frc consts  --      5.6860                 5.6874                 5.7147
 IR Inten    --     13.3024                15.1755                11.1991

                    109                    110                    111
                      A                      A                      A
 Frequencies --   3025.3437              3026.1018              3026.6088
 Red. masses --      1.0589                 1.0579                 1.0587
 Frc consts  --      5.7104                 5.7075                 5.7140
 IR Inten    --     28.9625                 7.4472                17.3139

                    112                    113                    114
                      A                      A                      A
 Frequencies --   3033.9281              3034.0845              3045.0238
 Red. masses --      1.0399                 1.0402                 1.0409
 Frc consts  --      5.6399                 5.6421                 5.6864
 IR Inten    --     52.0422                 1.5858                50.3302

                    115                    116                    117
                      A                      A                      A
 Frequencies --   3045.1465              3071.7051              3072.1274
 Red. masses --      1.0409                 1.1004                 1.1006
 Frc consts  --      5.6870                 6.1171                 6.1201
 IR Inten    --      9.9904                 5.9897                 2.5738

                    118                    119                    120
                      A                      A                      A
 Frequencies --   3073.9743              3074.2291              3074.8497
 Red. masses --      1.1037                 1.1041                 1.1040
 Frc consts  --      6.1449                 6.1478                 6.1497
 IR Inten    --      4.0518                26.9917                14.8117

                    121                    122                    123
                      A                      A                      A
 Frequencies --   3075.0197              3107.6654              3107.6939
 Red. masses --      1.1040                 1.1008                 1.1008
 Frc consts  --      6.1504                 6.2636                 6.2637
 IR Inten    --      8.3629                 4.2174                38.7131

                    124                    125                    126
                      A                      A                      A
 Frequencies --   3111.4935              3111.5218              3122.5514
 Red. masses --      1.1005                 1.1004                 1.1034
 Frc consts  --      6.2771                 6.2772                 6.3388
 IR Inten    --      0.3343                49.5184                 5.7042

                    127                    128                    129
                      A                      A                      A
 Frequencies --   3122.5569              3144.3377              3148.2239
 Red. masses --      1.1034                 1.0871                 1.0909
 Frc consts  --      6.3388                 6.3326                 6.3702
 IR Inten    --     43.7992                 3.4562                23.4381

                    130                    131                    132
                      A                      A                      A
 Frequencies --   3156.1818              3156.2038              3170.3650
 Red. masses --      1.0979                 1.0978                 1.0952
 Frc consts  --      6.4438                 6.4435                 6.4856
 IR Inten    --     17.9824                20.9983                33.0807

 - Thermochemistry -
 -------------------
 Temperature   298.150 Kelvin.  Pressure   1.00000 Atm.
 Atom     1 has atomic number 78 and mass 194.96480

 Molecular mass:   442.18222 amu.
 Principal axes and moments of inertia in atomic units:
                           1         2         3
     Eigenvalues --  4014.034687300.812059403.58703
           X            1.00000  -0.00000  -0.00000
           Y            0.00000   1.00000  -0.00195
           Z            0.00000   0.00195   1.00000
 This molecule is an asymmetric top.
 Rotational symmetry number  1.
 Warning -- assumption of classical behavior for rotation
           may cause significant error
 Rotational temperatures (Kelvin)      0.02158     0.01186     0.00921
 Rotational constants (GHZ):           0.44961     0.24720     0.19192
 Zero-point vibrational energy    1069221.1 (Joules/Mol)
                                  255.54998 (Kcal/Mol)
 Warning -- explicit consideration of  32 degrees of freedom as
           vibrations may cause significant error
 Vibrational temperatures:     32.80    90.97    96.47   166.56   175.08
          (Kelvin)            196.81   206.44   234.30   235.20   275.48
                              286.03   324.67   337.52   339.90   351.36
                              372.47   389.03   419.91   420.55   448.96
                              466.40   483.25   489.47   534.50   546.09
                              616.50   624.19   648.21   693.97   720.21
                              723.14   861.82   893.89   948.00   963.04
                             1029.00  1100.79  1113.07  1115.58  1140.58
                             1140.67  1160.70  1175.93  1195.38  1280.62
                             1306.07  1307.62  1361.83  1368.58  1395.12
                             1423.30  1426.99  1474.06  1507.37  1509.22
                             1524.54  1544.77  1545.41  1565.29  1569.09
                             1604.36  1611.62  1612.92  1667.47  1670.71
                             1676.16  1726.36  1730.88  1763.15  1787.09
                             1840.47  1854.53  1900.93  1922.05  1935.13
                             1957.69  1960.16  1961.59  1963.19  1993.48
                             1994.13  2002.92  2003.34  2012.98  2013.25
                             2020.94  2022.58  2076.60  2077.03  2088.34
                             2088.54  2096.12  2097.37  2101.51  2103.32
                             2104.25  2110.62  2111.79  2126.05  2126.98
                             2132.25  2132.43  2154.79  2334.63  2364.13
                             4322.32  4322.81  4352.32  4352.79  4353.89
                             4354.62  4365.15  4365.37  4381.11  4381.29
                             4419.50  4420.11  4422.76  4423.13  4424.02
                             4424.27  4471.24  4471.28  4476.75  4476.79
                             4492.66  4492.66  4524.00  4529.59  4541.04
                             4541.07  4561.45

 Zero-point correction=                           0.407245 (Hartree/Particle)
 Thermal correction to Energy=                    0.427570
 Thermal correction to Enthalpy=                  0.428514
 Thermal correction to Gibbs Free Energy=         0.359271
 Sum of electronic and zero-point Energies=           -853.698533
 Sum of electronic and thermal Energies=              -853.678207
 Sum of electronic and thermal Enthalpies=            -853.677263
 Sum of electronic and thermal Free Energies=         -853.746507

                     E (Thermal)             CV                S
                      KCal/Mol        Cal/Mol-Kelvin    Cal/Mol-Kelvin
 Total                  268.304             80.248            145.735
 Electronic               0.000              0.000              0.000
 Translational            0.889              2.981             44.149
 Rotational               0.889              2.981             33.976
 Vibrational            266.527             74.286             67.610
 Vibration     1          0.593              1.985              6.374
 Vibration     2          0.597              1.972              4.354
 Vibration     3          0.598              1.970              4.238
 Vibration     4          0.608              1.936              3.170
 Vibration     5          0.609              1.931              3.073
 Vibration     6          0.614              1.917              2.848
 Vibration     7          0.616              1.910              2.757
 Vibration     8          0.623              1.888              2.516
 Vibration     9          0.623              1.887              2.509
 Vibration    10          0.634              1.852              2.214
 Vibration    11          0.637              1.842              2.144
 Vibration    12          0.650              1.802              1.913
 Vibration    13          0.654              1.788              1.844
 Vibration    14          0.655              1.785              1.831
 Vibration    15          0.660              1.772              1.772
 Vibration    16          0.668              1.748              1.669
 Vibration    17          0.674              1.728              1.594
 Vibration    18          0.687              1.689              1.463
 Vibration    19          0.688              1.688              1.461
 Vibration    20          0.700              1.651              1.351
 Vibration    21          0.709              1.627              1.289
 Vibration    22          0.717              1.604              1.232
 Vibration    23          0.720              1.595              1.211
 Vibration    24          0.743              1.531              1.074
 Vibration    25          0.750              1.514              1.041
 Vibration    26          0.790              1.408              0.864
 Vibration    27          0.795              1.397              0.846
 Vibration    28          0.809              1.360              0.794
 Vibration    29          0.839              1.289              0.704
 Vibration    30          0.856              1.249              0.657
 Vibration    31          0.858              1.244              0.652
 Vibration    32          0.957              1.034              0.451

 Optimization completed.
    -- Stationary point found.
 Normal termination of Gaussian 16 at Fri May 13 18:53:03 2022.
