 Gaussian 16, Revision C.01,
 Gaussian 16:  ES64L-G16RevC.01  3-Jul-2019

 ----------------------------------------------------------------------
 # opt freq 6-311G(2d,p) scrf=(iefpcm,solvent=thf) m06 EmpiricalDispers
 ion=GD3
 ----------------------------------------------------------------------

 -------------------------------
 M06 PhMe; 6-311g(d,p) basis set
 -------------------------------
 Symbolic Z-matrix:
 Charge =  0 Multiplicity = 1

 SCF Done:  E(RM06) =  -271.411817553     A.U. after   12 cycles
 SCF Done:  E(RM06) =  -271.413245564     A.U. after    9 cycles
 SCF Done:  E(RM06) =  -271.413262626     A.U. after    8 cycles
 SCF Done:  E(RM06) =  -271.413262995     A.U. after    6 cycles
 SCF Done:  E(RM06) =  -271.413263070     A.U. after    5 cycles
 SCF Done:  E(RM06) =  -271.413263124     A.U. after    5 cycles
 SCF Done:  E(RM06) =  -271.413263297     A.U. after    7 cycles
 SCF Done:  E(RM06) =  -271.413263606     A.U. after    7 cycles
 SCF Done:  E(RM06) =  -271.413264458     A.U. after    8 cycles
 SCF Done:  E(RM06) =  -271.413264909     A.U. after    8 cycles
 SCF Done:  E(RM06) =  -271.413265860     A.U. after    7 cycles
 SCF Done:  E(RM06) =  -271.413266762     A.U. after    8 cycles
 SCF Done:  E(RM06) =  -271.413266839     A.U. after    7 cycles
 SCF Done:  E(RM06) =  -271.413266848     A.U. after    7 cycles
 SCF Done:  E(RM06) =  -271.413266849     A.U. after    6 cycles
 SCF Done:  E(RM06) =  -271.413266848     A.U. after    6 cycles
 SCF Done:  E(RM06) =  -271.413266848     A.U. after    6 cycles
 Optimization completed on the basis of negligible forces.
    -- Stationary point found.

 1\1\GINC-MASTIFF\FOpt\RM06\6-311G(2d,p)\C7H8\MVANVLEET\24-May-2022\0\\
 # opt freq 6-311G(2d,p) scrf=(iefpcm,solvent=thf) m06 EmpiricalDispers
 ion=GD3\\M06 PhMe; 6-311g(d,p) basis set\\0,1\C,-0.9090073027,0.000618
 5354,-0.0111353002\C,-0.1938851803,1.1936415696,0.016620511\C,1.191617
 4343,1.1947208503,0.0278894698\C,1.8889460396,-0.0031669525,0.00888159
 68\C,1.1887423186,-1.1991024648,-0.0236477208\C,-0.196734484,-1.194215
 9769,-0.0347919862\H,-0.7360874645,2.136561579,0.026876832\H,1.7304680
 782,2.1373624138,0.047314775\H,2.9744734239,-0.004583835,0.0145688258\

 Normal termination of Gaussian 16 at Tue May 24 14:51:11 2022.

 ----------------------------------------------------------------------
 #N Geom=AllCheck Guess=TCheck SCRF=Check GenChk RM06/6-311G(2d,p) Freq
 ----------------------------------------------------------------------

 Structure from the checkpoint file:  "PhMe.chk"
 -------------------------------
 M06 PhMe; 6-311g(d,p) basis set
 -------------------------------
 Charge =  0 Multiplicity = 1

                         Standard orientation:
 ---------------------------------------------------------------------
 Center     Atomic      Atomic             Coordinates (Angstroms)
 Number     Number       Type             X           Y           Z
 ---------------------------------------------------------------------
      1          6           0       -0.907550    0.000066   -0.010393
      2          6           0       -0.193807    1.194236   -0.008643
      3          6           0        1.191698    1.197159    0.001981
      4          6           0        1.890414   -0.000054    0.008450
      5          6           0        1.191591   -1.197221    0.001983
      6          6           0       -0.193895   -1.194177   -0.008645
      7          1           0       -0.737103    2.136531   -0.018442
      8          1           0        1.729458    2.140622    0.000871
      9          1           0        2.975945   -0.000093    0.013681
     10          1           0        1.729264   -2.140734    0.000876
     11          1           0       -0.737275   -2.136428   -0.018451
     12          6           0       -2.404177    0.000027    0.008447
     13          1           0       -2.810142    0.887449   -0.484459
     14          1           0       -2.810123   -0.884915   -0.488943
     15          1           0       -2.785675   -0.002643    1.035786
 ---------------------------------------------------------------------

 SCF Done:  E(RM06) =  -271.413266848     A.U. after    1 cycles

 The electronic state is 1-A.
 Alpha  occ. eigenvalues --  -10.24571 -10.23614 -10.23610 -10.23366 -10.23300
 Alpha  occ. eigenvalues --  -10.23297 -10.22964  -0.87526  -0.78754  -0.75945
 Alpha  occ. eigenvalues --   -0.69788  -0.61802  -0.59643  -0.52431  -0.47703
 Alpha  occ. eigenvalues --   -0.46185  -0.43258  -0.43107  -0.42164  -0.39552
 Alpha  occ. eigenvalues --   -0.37300  -0.35506  -0.34978  -0.26803  -0.25790
 Alpha virt. eigenvalues --   -0.00467  -0.00203   0.04634   0.06370   0.07311
 Alpha virt. eigenvalues --    0.09568   0.10266   0.10647   0.12501   0.13463
 Alpha virt. eigenvalues --    0.16948   0.20455   0.26360   0.26855   0.27242

 Mulliken charges:
               1
     1  C    0.113695
     2  C   -0.132393
     3  C   -0.098518
     4  C   -0.067156
     5  C   -0.098516
     6  C   -0.132479
     7  H    0.074844
     8  H    0.072693
     9  H    0.071092
    10  H    0.072693
    11  H    0.074845
    12  C   -0.289810
    13  H    0.109890
    14  H    0.109986
    15  H    0.119136
 Sum of Mulliken charges =   0.00000

 Dipole moment (field-independent basis, Debye):
    X=             -0.4592    Y=             -0.0004    Z=              0.0394  Tot=              0.4609
 Quadrupole moment (field-independent basis, Debye-Ang):
   XX=            -37.6184   YY=            -38.2577   ZZ=            -45.6094
   XY=              0.0006   XZ=             -0.0424   YZ=              0.0000

  Exact polarizability:     123.314       0.007     109.756      -0.225       0.000      49.270
 Approx polarizability:     140.424       0.009     134.234      -0.120      -0.000      63.534

                      1                      2                      3
                      A                      A                      A
 Frequencies --     39.2492               207.1731               347.5866
 Red. masses --      1.0374                 2.9879                 2.4796
 Frc consts  --      0.0009                 0.0756                 0.1765
 IR Inten    --      0.3729                 2.4900                 0.5029

                      4                      5                      6
                      A                      A                      A
 Frequencies --    411.1864               469.4513               526.2869
 Red. masses --      2.9128                 2.6673                 5.0408
 Frc consts  --      0.2902                 0.3463                 0.8226
 IR Inten    --      0.0049                 9.9839                 0.6003

                      7                      8                      9
                      A                      A                      A
 Frequencies --    629.4221               709.8403               737.8410
 Red. masses --      6.3098                 1.9431                 1.5328
 Frc consts  --      1.4728                 0.5769                 0.4917
 IR Inten    --      0.1850                33.5049                47.4050

                     10                     11                     12
                      A                      A                      A
 Frequencies --    802.1693               852.3574               904.2206
 Red. masses --      4.3164                 1.2503                 1.3016
 Frc consts  --      1.6364                 0.5352                 0.6270
 IR Inten    --      1.5803                 0.0161                 0.8710

                     13                     14                     15
                      A                      A                      A
 Frequencies --    971.4699               992.0978               993.7350
 Red. masses --      1.3660                 1.4185                 1.2778
 Frc consts  --      0.7595                 0.8226                 0.7435
 IR Inten    --      0.0058                 0.0052                 0.0920

                     16                     17                     18
                      A                      A                      A
 Frequencies --   1013.6349              1046.4087              1049.2966
 Red. masses --      5.8961                 1.6068                 2.0902
 Frc consts  --      3.5693                 1.0366                 1.3559
 IR Inten    --      0.1488                14.7965                 4.3913

                     19                     20                     21
                      A                      A                      A
 Frequencies --   1100.9576              1152.9036              1181.6493
 Red. masses --      1.4027                 1.0931                 1.1168
 Frc consts  --      1.0018                 0.8560                 0.9188
 IR Inten    --      9.6321                 0.0617                 0.5496

                     22                     23                     24
                      A                      A                      A
 Frequencies --   1237.5559              1323.8598              1341.3977
 Red. masses --      2.7126                 3.0575                 1.7069
 Frc consts  --      2.4477                 3.1572                 1.8095
 IR Inten    --      1.7773                 0.0577                 0.2036

                     25                     26                     27
                      A                      A                      A
 Frequencies --   1390.4828              1442.4606              1451.4848
 Red. masses --      1.2927                 1.1875                 1.0528
 Frc consts  --      1.4726                 1.4557                 1.3068
 IR Inten    --      0.8086                 5.3002                 9.4528

                     28                     29                     30
                      A                      A                      A
 Frequencies --   1484.6446              1524.1530              1634.1505
 Red. masses --      1.8888                 2.4936                 5.9588
 Frc consts  --      2.4529                 3.4130                 9.3755
 IR Inten    --     13.8539                22.6295                 0.6935

                     31                     32                     33
                      A                      A                      A
 Frequencies --   1657.9914              3011.0893              3078.6918
 Red. masses --      6.2395                 1.0386                 1.0984
 Frc consts  --     10.1057                 5.5482                 6.1341
 IR Inten    --     14.2866                39.6858                20.2984

                     34                     35                     36
                      A                      A                      A
 Frequencies --   3102.9517              3135.5142              3135.7037
 Red. masses --      1.1028                 1.0869                 1.0879
 Frc consts  --      6.2558                 6.2957                 6.3025
 IR Inten    --     21.3445                15.6361                13.7930

                     37                     38                     39
                      A                      A                      A
 Frequencies --   3150.0766              3157.8305              3169.7377
 Red. masses --      1.0884                 1.0937                 1.0984
 Frc consts  --      6.3634                 6.4256                 6.5021
 IR Inten    --      6.9730                50.2536                25.7654

 - Thermochemistry -
 -------------------
 Temperature   298.150 Kelvin.  Pressure   1.00000 Atm.
 Atom     1 has atomic number  6 and mass  12.00000

 Molecular mass:    92.06260 amu.
 Principal axes and moments of inertia in atomic units:
                           1         2         3
     Eigenvalues --   322.14591 708.268791019.24125
           X            1.00000   0.00000  -0.00041
           Y           -0.00000   1.00000   0.00000
           Z            0.00041  -0.00000   1.00000
 This molecule is an asymmetric top.
 Rotational symmetry number  1.
 Rotational temperatures (Kelvin)      0.26887     0.12229     0.08498
 Rotational constants (GHZ):           5.60225     2.54810     1.77067
 Zero-point vibrational energy     332374.7 (Joules/Mol)
                                   79.43947 (Kcal/Mol)
 Warning -- explicit consideration of   6 degrees of freedom as
           vibrations may cause significant error
 Vibrational temperatures:     56.47   298.08   500.10   591.61   675.44
          (Kelvin)            757.21   905.60  1021.30  1061.59  1154.14
                             1226.35  1300.97  1397.73  1427.41  1429.76
                             1458.39  1505.55  1509.70  1584.03  1658.77
                             1700.13  1780.57  1904.74  1929.97  2000.59
                             2075.38  2088.36  2136.07  2192.92  2351.18
                             2385.48  4332.29  4429.55  4464.46  4511.31
                             4511.58  4532.26  4543.41  4560.55

 Zero-point correction=                           0.126595 (Hartree/Particle)
 Thermal correction to Energy=                    0.132842
 Thermal correction to Enthalpy=                  0.133787
 Thermal correction to Gibbs Free Energy=         0.095989
 Sum of electronic and zero-point Energies=           -271.286672
 Sum of electronic and thermal Energies=              -271.280424
 Sum of electronic and thermal Enthalpies=            -271.279480
 Sum of electronic and thermal Free Energies=         -271.317278

                     E (Thermal)             CV                S
                      KCal/Mol        Cal/Mol-Kelvin    Cal/Mol-Kelvin
 Total                   83.360             23.464             79.551
 Electronic               0.000              0.000              0.000
 Translational            0.889              2.981             39.471
 Rotational               0.889              2.981             26.944
 Vibrational             81.582             17.502             13.136
 Vibration     1          0.594              1.981              5.297
 Vibration     2          0.641              1.830              2.068
 Vibration     3          0.725              1.580              1.177
 Vibration     4          0.775              1.446              0.922
 Vibration     5          0.827              1.318              0.739
 Vibration     6          0.881              1.192              0.596

 Optimization completed.
    -- Stationary point found.

 1\1\GINC-MASTIFF\Freq\RM06\6-311G(2d,p)\C7H8\MVANVLEET\24-May-2022\0\\
 #N Geom=AllCheck Guess=TCheck SCRF=Check GenChk RM06/6-311G(2d,p) Freq
 \\M06 PhMe; 6-311g(d,p) basis set\\0,1\C,-0.9090073027,0.0006185354,-0
 .0111353002\C,-0.1938851803,1.1936415696,0.016620511\C,1.1916174343,1.
 1947208503,0.0278894698\C,1.8889460396,-0.0031669525,0.0088815968\C,1.
 1887423186,-1.1991024648,-0.0236477208\C,-0.196734484,-1.1942159769,-0
 .0347919862\H,-0.7360874645,2.136561579,0.026876832\H,1.7304680782,2.1
 373624138,0.047314775\H,2.9744734239,-0.004583835,0.0145688258\H,1.725

 Normal termination of Gaussian 16 at Tue May 24 14:53:29 2022.
