 Gaussian 16, Revision C.01,
 Gaussian 16:  ES64L-G16RevC.01  3-Jul-2019

 ----------------------------------------------------------
 # wb97xd def2TZVPP SCRF=(solvent=dichloromethane) opt freq
 ----------------------------------------------------------

 ---
 ch4
 ---
 Symbolic Z-matrix:
 Charge =  0 Multiplicity = 1

 SCF Done:  E(RwB97XD) =  -40.5208714449     A.U. after    8 cycles
 SCF Done:  E(RwB97XD) =  -40.5211211030     A.U. after    6 cycles
 Optimization completed.
    -- Stationary point found.

 1\1\GINC-NODE001\FOpt\RwB97XD\def2TZVPP\C1H4\MVANVLEET\05-Mar-2024\0\\
 # wb97xd def2TZVPP SCRF=(solvent=dichloromethane) opt freq\\ch4\\0,1\C
 ,0.,0.,0.\H,0.6282582995,0.6282582995,0.6282582995\H,-0.6282582995,-0.
 6282582995,0.6282582995\H,-0.6282582995,0.6282582995,-0.6282582995\H,0
 .6282582995,-0.6282582995,-0.6282582995\\Version=ES64L-G16RevC.01\Stat
 e=1-A1\HF=-40.5211211\RMSD=8.388e-09\RMSF=4.433e-05\Dipole=0.,0.,0.\Qu
 adrupole=0.,0.,0.,0.,0.,0.\PG=TD [O(C1),4C3(H1)]\\@
 The archive entry for this job was punched.

 Normal termination of Gaussian 16 at Tue Mar  5 21:40:10 2024.

 ----------------------------------------------------------------------
 #N Geom=AllCheck Guess=TCheck SCRF=Check GenChk RwB97XD/def2TZVPP Freq
 ----------------------------------------------------------------------

 Structure from the checkpoint file:  "ch4.chk"
 ---
 ch4
 ---
 Charge =  0 Multiplicity = 1

                         Standard orientation:
 ---------------------------------------------------------------------
 Center     Atomic      Atomic             Coordinates (Angstroms)
 Number     Number       Type             X           Y           Z
 ---------------------------------------------------------------------
      1          6           0        0.000000    0.000000    0.000000
      2          1           0        0.628258    0.628258    0.628258
      3          1           0       -0.628258   -0.628258    0.628258
      4          1           0       -0.628258    0.628258   -0.628258
      5          1           0        0.628258   -0.628258   -0.628258
 ---------------------------------------------------------------------

 SCF Done:  E(RwB97XD) =  -40.5211211030     A.U. after    1 cycles

 The electronic state is 1-A1.
 Alpha  occ. eigenvalues --  -10.26209  -0.79115  -0.47615  -0.47615  -0.47615
 Alpha virt. eigenvalues --    0.13188   0.20755   0.20755   0.20755   0.28306
 Alpha virt. eigenvalues --    0.28306   0.28306   0.47041   0.54610   0.54610
 Alpha virt. eigenvalues --    0.54610   0.58500   0.58500   0.59320   0.96289

 Mulliken charges:
               1
     1  C   -0.377719
     2  H    0.094430
     3  H    0.094430
     4  H    0.094430
     5  H    0.094430
 Sum of Mulliken charges =   0.00000

 Dipole moment (field-independent basis, Debye):
    X=              0.0000    Y=              0.0000    Z=              0.0000  Tot=              0.0000
 Quadrupole moment (field-independent basis, Debye-Ang):
   XX=             -8.3605   YY=             -8.3605   ZZ=             -8.3605
   XY=              0.0000   XZ=              0.0000   YZ=              0.0000

  Exact polarizability:      17.916      -0.000      17.916      -0.000      -0.000      17.916
 Approx polarizability:      14.938      -0.000      14.938       0.000      -0.000      14.938

                      1                      2                      3
                     T2                     T2                     T2
 Frequencies --   1333.6132              1333.6132              1333.6132
 Red. masses --      1.1787                 1.1787                 1.1787
 Frc consts  --      1.2351                 1.2351                 1.2351
 IR Inten    --     19.3825                19.3825                19.3825

                      4                      5                      6
                      E                      E                     A1
 Frequencies --   1549.8608              1549.8608              3044.2778
 Red. masses --      1.0078                 1.0078                 1.0078
 Frc consts  --      1.4263                 1.4263                 5.5031
 IR Inten    --      0.0000                 0.0000                 0.0000

                      7                      8                      9
                     T2                     T2                     T2
 Frequencies --   3164.2974              3164.2974              3164.2974
 Red. masses --      1.1019                 1.1019                 1.1019
 Frc consts  --      6.5005                 6.5005                 6.5005
 IR Inten    --     26.7008                26.7008                26.7008

 - Thermochemistry -
 -------------------
 Temperature   298.150 Kelvin.  Pressure   1.00000 Atm.
 Atom     1 has atomic number  6 and mass  12.00000

 Molecular mass:    16.03130 amu.
 Principal axes and moments of inertia in atomic units:
                           1         2         3
     Eigenvalues --    11.36447  11.36447  11.36447
           X            0.00000   0.90167  -0.43242
           Y            0.00000   0.43242   0.90167
           Z            1.00000   0.00000  -0.00000
 This molecule is a spherical top.
 Rotational symmetry number 12.
 Rotational temperatures (Kelvin)      7.62146     7.62146     7.62146
 Rotational constants (GHZ):         158.80552   158.80552   158.80552
 Zero-point vibrational energy     117459.7 (Joules/Mol)
                                   28.07355 (Kcal/Mol)
 Vibrational temperatures:   1918.77  1918.77  1918.77  2229.90  2229.90
          (Kelvin)           4380.04  4552.72  4552.72  4552.72

 Zero-point correction=                           0.044738 (Hartree/Particle)
 Thermal correction to Energy=                    0.047608
 Thermal correction to Enthalpy=                  0.048552
 Thermal correction to Gibbs Free Energy=         0.027427
 Sum of electronic and zero-point Energies=            -40.476383
 Sum of electronic and thermal Energies=               -40.473513
 Sum of electronic and thermal Enthalpies=             -40.472569
 Sum of electronic and thermal Free Energies=          -40.493694

                     E (Thermal)             CV                S
                      KCal/Mol        Cal/Mol-Kelvin    Cal/Mol-Kelvin
 Total                   29.874              6.485             44.461
 Electronic               0.000              0.000              0.000
 Translational            0.889              2.981             34.261
 Rotational               0.889              2.981             10.110
 Vibrational             28.097              0.523              0.090

 Optimization completed.
    -- Stationary point found.

 1\1\GINC-NODE001\Freq\RwB97XD\def2TZVPP\C1H4\MVANVLEET\05-Mar-2024\0\\
 #N Geom=AllCheck Guess=TCheck SCRF=Check GenChk RwB97XD/def2TZVPP Freq
 \\ch4\\0,1\C,0.,0.,0.\H,0.6282582995,0.6282582995,0.6282582995\H,-0.62
 82582995,-0.6282582995,0.6282582995\H,-0.6282582995,0.6282582995,-0.62
 82582995\H,0.6282582995,-0.6282582995,-0.6282582995\\Version=ES64L-G16
 RevC.01\State=1-A1\HF=-40.5211211\RMSD=1.229e-09\RMSF=4.433e-05\ZeroPo
 int=0.044738\Thermal=0.0476079\ETot=-40.4735132\HTot=-40.472569\GTot=-
 40.493694\Dipole=0.,0.,0.\DipoleDeriv=-0.0192856,0.,0.,0.,-0.0192856,0

 Normal termination of Gaussian 16 at Tue Mar  5 21:40:20 2024.
