 Gaussian 16, Revision C.01,
 Gaussian 16:  ES64L-G16RevC.01  3-Jul-2019

 ----------------------------------------------------------
 # wb97xd def2TZVPP SCRF=(solvent=dichloromethane) opt freq
 ----------------------------------------------------------

 ----
 HZIr
 ----
 Symbolic Z-matrix:
 Charge =  1 Multiplicity = 1

 SCF Done:  E(RwB97XD) =  -774.355716362     A.U. after   19 cycles
 SCF Done:  E(RwB97XD) =  -774.375158373     A.U. after   15 cycles
 SCF Done:  E(RwB97XD) =  -774.397804907     A.U. after   17 cycles
 SCF Done:  E(RwB97XD) =  -774.403446449     A.U. after   15 cycles
 SCF Done:  E(RwB97XD) =  -774.402279938     A.U. after   16 cycles
 SCF Done:  E(RwB97XD) =  -774.410379112     A.U. after   14 cycles
 SCF Done:  E(RwB97XD) =  -774.410689832     A.U. after   14 cycles
 SCF Done:  E(RwB97XD) =  -774.410851271     A.U. after   14 cycles
 SCF Done:  E(RwB97XD) =  -774.411178895     A.U. after   14 cycles
 SCF Done:  E(RwB97XD) =  -774.391094990     A.U. after   16 cycles
 SCF Done:  E(RwB97XD) =  -774.416585276     A.U. after   15 cycles
 SCF Done:  E(RwB97XD) =  -774.418679315     A.U. after   15 cycles
 SCF Done:  E(RwB97XD) =  -774.418775485     A.U. after   14 cycles
 SCF Done:  E(RwB97XD) =  -774.418968609     A.U. after   14 cycles
 SCF Done:  E(RwB97XD) =  -774.419098929     A.U. after   14 cycles
 SCF Done:  E(RwB97XD) =  -774.419109485     A.U. after   10 cycles
 SCF Done:  E(RwB97XD) =  -774.419110680     A.U. after   10 cycles
 SCF Done:  E(RwB97XD) =  -774.419110798     A.U. after    9 cycles
 SCF Done:  E(RwB97XD) =  -774.419110753     A.U. after    9 cycles
 Optimization completed.
    -- Stationary point found.
 Normal termination of Gaussian 16 at Fri Mar 29 04:43:15 2024.

 ----------------------------------------------------------------------
 #N Geom=AllCheck Guess=TCheck SCRF=Check GenChk RwB97XD/def2TZVPP Freq
 ----------------------------------------------------------------------

 Structure from the checkpoint file:  "HZIr.chk"
 ----
 HZIr
 ----
 Charge =  1 Multiplicity = 1

                         Standard orientation:
 ---------------------------------------------------------------------
 Center     Atomic      Atomic             Coordinates (Angstroms)
 Number     Number       Type             X           Y           Z
 ---------------------------------------------------------------------
      1          6           0       -1.506505    1.154476    0.154554
      2          6           0       -1.484626   -1.187681    0.158809
      3          6           0       -2.878691    1.174509    0.050962
      4          6           0       -2.853111   -1.235541    0.054597
      5          6           0       -3.562940   -0.037712   -0.020407
      6          1           0       -3.408737    2.116888    0.039141
      7          1           0       -3.376842   -2.179907    0.044240
      8          8           0       -4.896528   -0.116033   -0.137003
      9          7           0       -0.836350   -0.008744    0.159235
     10          6           0       -0.629898    2.345948    0.410825
     11          1           0       -0.600470    2.486798    1.492206
     12          1           0       -1.038381    3.256253   -0.031064
     13          6           0       -0.582709   -2.358776    0.420366
     14          1           0       -0.543478   -2.489366    1.502703
     15          1           0       -0.976024   -3.280596   -0.011322
     16          7           0        0.771682    2.115643   -0.049620
     17          7           0        0.810339   -2.103608   -0.051011
     18          6           0        1.690812    2.913666    0.783277
     19          1           0        2.705694    2.772361    0.417945
     20          1           0        1.439112    3.977143    0.732654
     21          1           0        1.632458    2.571525    1.813374
     22          6           0        0.890009    2.565834   -1.454900
     23          1           0        0.712002    3.643390   -1.521465
     24          1           0        1.888249    2.343383   -1.822891
     25          1           0        0.163588    2.040418   -2.069698
     26          6           0        1.751106   -2.885724    0.773367
     27          1           0        1.517843   -3.953452    0.723897
     28          1           0        2.760143   -2.726224    0.399422
     29          1           0        1.695267   -2.545542    1.804247
     30          6           0        0.924306   -2.549890   -1.457688
     31          1           0        1.915729   -2.311124   -1.833730
     32          1           0        0.762872   -3.630030   -1.524159
     33          1           0        0.184353   -2.035444   -2.065624
     34         77           0        1.055379    0.009041    0.045689
     35          1           0       -5.291589    0.757939   -0.164700
 ---------------------------------------------------------------------

 SCF Done:  E(RwB97XD) =  -774.419110753     A.U. after    1 cycles

 The electronic state is 1-A.
 Alpha  occ. eigenvalues --  -19.31444 -14.52082 -14.51808 -14.51759 -10.39611
 Alpha  occ. eigenvalues --  -10.37133 -10.37013 -10.35390 -10.35300 -10.32804
 Alpha  occ. eigenvalues --  -10.32778 -10.32753 -10.32712 -10.32426 -10.32084
 Alpha  occ. eigenvalues --   -3.74733  -2.09377  -2.08494  -2.05521  -1.20680
 Alpha  occ. eigenvalues --   -1.12102  -1.07967  -1.07313  -0.94186  -0.93633
 Alpha  occ. eigenvalues --   -0.86331  -0.83911  -0.83740  -0.83701  -0.77482
 Alpha  occ. eigenvalues --   -0.76264  -0.73279  -0.73017  -0.67241  -0.65184
 Alpha  occ. eigenvalues --   -0.62302  -0.61952  -0.60493  -0.60299  -0.59223
 Alpha  occ. eigenvalues --   -0.58955  -0.58294  -0.56123  -0.54426  -0.53615
 Alpha  occ. eigenvalues --   -0.52585  -0.52532  -0.51515  -0.51008  -0.50001
 Alpha  occ. eigenvalues --   -0.49739  -0.49067  -0.48204  -0.47893  -0.47388
 Alpha  occ. eigenvalues --   -0.47115  -0.46258  -0.44516  -0.39067  -0.38541
 Alpha  occ. eigenvalues --   -0.36975  -0.29956  -0.27759  -0.26601  -0.26266
 Alpha virt. eigenvalues --    0.00658   0.01577   0.02884   0.07538   0.08574
 Alpha virt. eigenvalues --    0.09829   0.10229   0.11052   0.12950   0.13962
 Alpha virt. eigenvalues --    0.14064   0.14172   0.14634   0.14872   0.15557

 Mulliken charges:
               1
     1  C    0.083799
     2  C    0.110610
     3  C   -0.185796
     4  C   -0.198737
     5  C    0.261462
     6  H    0.118515
     7  H    0.130091
     8  O   -0.285539
     9  N   -0.107735
    10  C   -0.083646
    11  H    0.126758
    12  H    0.121294
    13  C   -0.082114
    14  H    0.126520
    15  H    0.121765
    16  N   -0.057116
    17  N   -0.057506
    18  C   -0.173784
    19  H    0.109364
    20  H    0.115235
    21  H    0.108470
    22  C   -0.193947
    23  H    0.106981
    24  H    0.112309
    25  H    0.122896
    26  C   -0.173786
    27  H    0.115259
    28  H    0.109315
    29  H    0.108421
    30  C   -0.193828
    31  H    0.112053
    32  H    0.107175
    33  H    0.122936
    34  Ir   0.025667
    35  H    0.216637
 Sum of Mulliken charges =   1.00000

 Dipole moment (field-independent basis, Debye):
    X=             -0.9675    Y=              1.6518    Z=             -0.4427  Tot=              1.9648
 Quadrupole moment (field-independent basis, Debye-Ang):
   XX=            -80.5845   YY=            -71.6535   ZZ=           -109.8176
   XY=             -9.2526   XZ=             -1.5875   YZ=             -0.3254

  Exact polarizability:     326.404      -1.165     272.626       5.162      -0.039     206.782
 Approx polarizability:     256.520      -0.422     223.884       3.952      -0.045     183.196

                      1                      2                      3
                      A                      A                      A
 Frequencies --     57.5978                64.2501                84.7259
 Red. masses --      3.5901                 2.9686                 4.5843
 Frc consts  --      0.0070                 0.0072                 0.0194
 IR Inten    --      5.7059                 0.5383                 0.2520

                      4                      5                      6
                      A                      A                      A
 Frequencies --    170.7353               193.4953               201.1510
 Red. masses --      3.6197                 3.4237                 3.0405
 Frc consts  --      0.0622                 0.0755                 0.0725
 IR Inten    --      7.8135                 5.3775                 0.3624

                      7                      8                      9
                      A                      A                      A
 Frequencies --    206.5757               245.0494               263.1292
 Red. masses --      3.1925                 3.2340                 4.1036
 Frc consts  --      0.0803                 0.1144                 0.1674
 IR Inten    --      3.1734                 1.0798                 2.6613

                     10                     11                     12
                      A                      A                      A
 Frequencies --    270.8222               272.2164               279.4330
 Red. masses --      5.4178                 3.0415                 2.2082
 Frc consts  --      0.2341                 0.1328                 0.1016
 IR Inten    --      3.8861                 1.4562                 1.8417

                     13                     14                     15
                      A                      A                      A
 Frequencies --    284.3090               288.1584               292.6842
 Red. masses --      1.2821                 1.6063                 2.3772
 Frc consts  --      0.0611                 0.0786                 0.1200
 IR Inten    --      0.9904                 2.9905                12.3893

                     16                     17                     18
                      A                      A                      A
 Frequencies --    318.0514               318.9465               357.6876
 Red. masses --      1.0872                 1.1251                 4.2208
 Frc consts  --      0.0648                 0.0674                 0.3182
 IR Inten    --      0.7111                 0.3341                 0.0506

                     19                     20                     21
                      A                      A                      A
 Frequencies --    402.6513               418.2053               418.5237
 Red. masses --      2.1227                 1.9698                 1.2943
 Frc consts  --      0.2028                 0.2030                 0.1336
 IR Inten    --     19.2781                28.7203                98.3841

                     22                     23                     24
                      A                      A                      A
 Frequencies --    457.0088               487.7987               502.9616
 Red. masses --      2.6723                 2.7349                 3.0766
 Frc consts  --      0.3288                 0.3834                 0.4586
 IR Inten    --      6.3420                14.3022                 8.4058

                     25                     26                     27
                      A                      A                      A
 Frequencies --    531.2961               532.6919               555.9993
 Red. masses --      3.3519                 3.0091                 2.9462
 Frc consts  --      0.5575                 0.5031                 0.5366
 IR Inten    --      4.0092                 0.4440                16.7388

                     28                     29                     30
                      A                      A                      A
 Frequencies --    609.8989               619.7320               696.3954
 Red. masses --      4.7748                 5.0486                 5.6237
 Frc consts  --      1.0464                 1.1424                 1.6069
 IR Inten    --     39.3803                41.4166                 1.5530

                     31                     32                     33
                      A                      A                      A
 Frequencies --    715.0113               746.8196               874.9674
 Red. masses --      3.6381                 3.4569                 2.0170
 Frc consts  --      1.0958                 1.1360                 0.9098
 IR Inten    --     12.5353                 0.9240                34.0931

                     34                     35                     36
                      A                      A                      A
 Frequencies --    882.1072               903.8819               910.7507
 Red. masses --      2.5600                 2.0523                 1.8407
 Frc consts  --      1.1736                 0.9879                 0.8996
 IR Inten    --     17.9833                43.3291                39.6812

                     37                     38                     39
                      A                      A                      A
 Frequencies --    974.5545               990.0707              1007.1614
 Red. masses --      2.4479                 2.2002                 2.7559
 Frc consts  --      1.3698                 1.2707                 1.6471
 IR Inten    --     16.7624                15.4149                 7.2990

                     40                     41                     42
                      A                      A                      A
 Frequencies --   1011.4017              1031.3784              1047.7163
 Red. masses --      2.5894                 2.6249                 1.7926
 Frc consts  --      1.5606                 1.6451                 1.1594
 IR Inten    --     54.1669                 9.9485                 7.1901

                     43                     44                     45
                      A                      A                      A
 Frequencies --   1050.3108              1056.5370              1102.9568
 Red. masses --      1.6087                 2.8827                 6.2802
 Frc consts  --      1.0456                 1.8959                 4.5013
 IR Inten    --     10.5298                16.8421                26.5002

                     46                     47                     48
                      A                      A                      A
 Frequencies --   1134.1168              1138.4071              1178.4165
 Red. masses --      1.2700                 1.2668                 1.5448
 Frc consts  --      0.9624                 0.9673                 1.2639
 IR Inten    --      0.9204                 2.2956               260.6658

                     49                     50                     51
                      A                      A                      A
 Frequencies --   1185.8127              1191.0410              1205.6966
 Red. masses --      1.6376                 1.5599                 1.5304
 Frc consts  --      1.3567                 1.3038                 1.3108
 IR Inten    --      8.3189                53.9519                 1.3797

                     52                     53                     54
                      A                      A                      A
 Frequencies --   1220.5393              1224.7382              1246.8850
 Red. masses --      1.6773                 1.8068                 1.6711
 Frc consts  --      1.4722                 1.5968                 1.5308
 IR Inten    --     27.3157                 2.3378                55.9761

                     55                     56                     57
                      A                      A                      A
 Frequencies --   1281.2972              1287.3550              1317.6992
 Red. masses --      2.0571                 2.1359                 2.0032
 Frc consts  --      1.9898                 2.0856                 2.0493
 IR Inten    --      3.8232                 7.5138                40.1176

                     58                     59                     60
                      A                      A                      A
 Frequencies --   1324.1712              1337.0645              1383.0498
 Red. masses --      1.4591                 1.8827                 1.7396
 Frc consts  --      1.5074                 1.9831                 1.9605
 IR Inten    --     17.8052                62.0714                80.8386

                     61                     62                     63
                      A                      A                      A
 Frequencies --   1401.5618              1411.0663              1451.5931
 Red. masses --      1.4271                 4.2161                 1.1528
 Frc consts  --      1.6517                 4.9461                 1.4312
 IR Inten    --     41.0996                 7.6182                 7.8418

                     64                     65                     66
                      A                      A                      A
 Frequencies --   1451.9615              1470.8573              1472.0435
 Red. masses --      1.1521                 1.1700                 1.1338
 Frc consts  --      1.4310                 1.4914                 1.4475
 IR Inten    --      5.2761                22.0511                 7.3664

                     67                     68                     69
                      A                      A                      A
 Frequencies --   1484.4305              1484.5595              1486.8201
 Red. masses --      1.0500                 1.0500                 1.1241
 Frc consts  --      1.3632                 1.3634                 1.4641
 IR Inten    --      5.0446                 3.2357                 9.5174

                     70                     71                     72
                      A                      A                      A
 Frequencies --   1487.7347              1498.8254              1500.2538
 Red. masses --      1.1202                 1.0739                 1.0670
 Frc consts  --      1.4609                 1.4214                 1.4149
 IR Inten    --     28.8936                23.8966                35.7868

                     73                     74                     75
                      A                      A                      A
 Frequencies --   1502.7816              1504.4651              1505.5728
 Red. masses --      1.7231                 1.1210                 1.1315
 Frc consts  --      2.2928                 1.4950                 1.5112
 IR Inten    --    168.4699                22.4252               151.6112

                     76                     77                     78
                      A                      A                      A
 Frequencies --   1508.8143              1510.5271              1544.5513
 Red. masses --      1.0506                 1.1885                 3.9828
 Frc consts  --      1.4092                 1.5977                 5.5982
 IR Inten    --     42.6051                90.5546                 9.5965

                     79                     80                     81
                      A                      A                      A
 Frequencies --   1644.0254              1698.5596              3035.5549
 Red. masses --      7.3481                 6.8760                 1.0437
 Frc consts  --     11.7015                11.6881                 5.6661
 IR Inten    --    110.1976               241.5027                23.6606

                     82                     83                     84
                      A                      A                      A
 Frequencies --   3035.8125              3037.4025              3038.7070
 Red. masses --      1.0443                 1.0442                 1.0440
 Frc consts  --      5.6707                 5.6761                 5.6795
 IR Inten    --     28.6649               201.4177                25.7299

                     85                     86                     87
                      A                      A                      A
 Frequencies --   3073.5459              3073.8795              3123.4421
 Red. masses --      1.0595                 1.0595                 1.1056
 Frc consts  --      5.8972                 5.8983                 6.3552
 IR Inten    --     30.3784                16.2475                15.1139

                     88                     89                     90
                      A                      A                      A
 Frequencies --   3123.6933              3133.9837              3134.0579
 Red. masses --      1.1056                 1.0931                 1.0932
 Frc consts  --      6.3561                 6.3256                 6.3263
 IR Inten    --      6.6267                12.9414                10.1256

                     91                     92                     93
                      A                      A                      A
 Frequencies --   3139.5270              3139.6546              3171.7581
 Red. masses --      1.0903                 1.0902                 1.1063
 Frc consts  --      6.3315                 6.3316                 6.5571
 IR Inten    --     15.4135                31.1455                 2.7374

                     94                     95                     96
                      A                      A                      A
 Frequencies --   3171.8464              3177.9237              3178.3724
 Red. masses --      1.1062                 1.1062                 1.1061
 Frc consts  --      6.5572                 6.5820                 6.5836
 IR Inten    --     18.7494                10.2966                12.0628

                     97                     98                     99
                      A                      A                      A
 Frequencies --   3222.2597              3240.5232              3882.6849
 Red. masses --      1.0936                 1.0936                 1.0664
 Frc consts  --      6.6899                 6.7659                 9.4719
 IR Inten    --      5.3367                 1.3213               238.1245

 - Thermochemistry -
 -------------------
 Temperature   298.150 Kelvin.  Pressure   1.00000 Atm.
 Atom     1 has atomic number  6 and mass  12.00000

 Molecular mass:   402.11611 amu.
 Principal axes and moments of inertia in atomic units:
                           1         2         3
     Eigenvalues --  3350.129594701.031767308.98060
           X            0.99990  -0.01374  -0.00189
           Y            0.01374   0.99991  -0.00015
           Z            0.00189   0.00013   1.00000
 This molecule is an asymmetric top.
 Rotational symmetry number  1.
 Warning -- assumption of classical behavior for rotation
           may cause significant error
 Rotational temperatures (Kelvin)      0.02585     0.01842     0.01185
 Rotational constants (GHZ):           0.53871     0.38390     0.24692
 Zero-point vibrational energy     798625.3 (Joules/Mol)
                                  190.87604 (Kcal/Mol)
 Warning -- explicit consideration of  29 degrees of freedom as
           vibrations may cause significant error
 Vibrational temperatures:     82.87    92.44   121.90   245.65   278.40
          (Kelvin)            289.41   297.22   352.57   378.58   389.65
                              391.66   402.04   409.06   414.60   421.11
                              457.61   458.89   514.63   579.33   601.70
                              602.16   657.53   701.83   723.65   764.42
                              766.42   799.96   877.51   891.66  1001.96
                             1028.74  1074.51  1258.88  1269.16  1300.48
                             1310.37  1402.17  1424.49  1449.08  1455.18
                             1483.92  1507.43  1511.16  1520.12  1586.91
                             1631.74  1637.91  1695.48  1706.12  1713.64
                             1734.73  1756.08  1762.13  1793.99  1843.50
                             1852.22  1895.88  1905.19  1923.74  1989.90
                             2016.53  2030.21  2088.52  2089.05  2116.24
                             2117.94  2135.76  2135.95  2139.20  2140.52
                             2156.48  2158.53  2162.17  2164.59  2166.18
                             2170.85  2173.31  2222.26  2365.39  2443.85
                             4367.49  4367.86  4370.14  4372.02  4422.15
                             4422.63  4493.94  4494.30  4509.10  4509.21
                             4517.08  4517.26  4563.45  4563.58  4572.32
                             4572.97  4636.11  4662.39  5586.32

 Zero-point correction=                           0.304180 (Hartree/Particle)
 Thermal correction to Energy=                    0.320118
 Thermal correction to Enthalpy=                  0.321062
 Thermal correction to Gibbs Free Energy=         0.261603
 Sum of electronic and zero-point Energies=           -774.114930
 Sum of electronic and thermal Energies=              -774.098993
 Sum of electronic and thermal Enthalpies=            -774.098048
 Sum of electronic and thermal Free Energies=         -774.157508

                     E (Thermal)             CV                S
                      KCal/Mol        Cal/Mol-Kelvin    Cal/Mol-Kelvin
 Total                  200.877             63.342            125.143
 Electronic               0.000              0.000              0.000
 Translational            0.889              2.981             43.866
 Rotational               0.889              2.981             33.109
 Vibrational            199.100             57.381             48.168
 Vibration     1          0.596              1.974              4.538
 Vibration     2          0.597              1.971              4.322
 Vibration     3          0.601              1.960              3.778
 Vibration     4          0.626              1.879              2.427
 Vibration     5          0.635              1.849              2.194
 Vibration     6          0.638              1.838              2.123
 Vibration     7          0.641              1.831              2.074
 Vibration     8          0.660              1.771              1.766
 Vibration     9          0.670              1.740              1.641
 Vibration    10          0.675              1.727              1.591
 Vibration    11          0.675              1.725              1.582
 Vibration    12          0.680              1.712              1.537
 Vibration    13          0.683              1.703              1.508
 Vibration    14          0.685              1.696              1.485
 Vibration    15          0.688              1.687              1.458
 Vibration    16          0.704              1.639              1.320
 Vibration    17          0.705              1.637              1.315
 Vibration    18          0.733              1.559              1.132
 Vibration    19          0.768              1.464              0.953
 Vibration    20          0.781              1.431              0.898
 Vibration    21          0.781              1.430              0.897
 Vibration    22          0.815              1.345              0.775
 Vibration    23          0.844              1.277              0.689
 Vibration    24          0.858              1.243              0.651
 Vibration    25          0.886              1.181              0.584
 Vibration    26          0.888              1.178              0.581
 Vibration    27          0.911              1.127              0.532
 Vibration    28          0.969              1.011              0.433
 Vibration    29          0.980              0.990              0.417

 Optimization completed.
    -- Stationary point found.
 Normal termination of Gaussian 16 at Fri Mar 29 08:45:23 2024.
