 Gaussian 16, Revision C.01,
 Gaussian 16:  ES64L-G16RevC.01  3-Jul-2019

 ----------------------------------------------------------
 # wb97xd def2TZVPP SCRF=(solvent=dichloromethane) opt freq
 ----------------------------------------------------------

 -------
 HZIrMeH
 -------
 Symbolic Z-matrix:
 Charge =  1 Multiplicity = 1

 SCF Done:  E(RwB97XD) =  -814.918428550     A.U. after   17 cycles
 SCF Done:  E(RwB97XD) =  -814.950781705     A.U. after   13 cycles
 SCF Done:  E(RwB97XD) =  -814.961828527     A.U. after   14 cycles
 SCF Done:  E(RwB97XD) =  -814.963677374     A.U. after   13 cycles
 SCF Done:  E(RwB97XD) =  -814.965399422     A.U. after   14 cycles
 SCF Done:  E(RwB97XD) =  -814.967787746     A.U. after   14 cycles
 SCF Done:  E(RwB97XD) =  -814.965383738     A.U. after   15 cycles
 SCF Done:  E(RwB97XD) =  -814.969104843     A.U. after   13 cycles
 SCF Done:  E(RwB97XD) =  -814.969639777     A.U. after   13 cycles
 SCF Done:  E(RwB97XD) =  -814.970030529     A.U. after   13 cycles
 SCF Done:  E(RwB97XD) =  -814.970202933     A.U. after   12 cycles
 SCF Done:  E(RwB97XD) =  -814.970210218     A.U. after    9 cycles
 SCF Done:  E(RwB97XD) =  -814.970212964     A.U. after   11 cycles
 SCF Done:  E(RwB97XD) =  -814.970213674     A.U. after    9 cycles
 SCF Done:  E(RwB97XD) =  -814.970214618     A.U. after   10 cycles
 SCF Done:  E(RwB97XD) =  -814.970214842     A.U. after    9 cycles
 SCF Done:  E(RwB97XD) =  -814.970215052     A.U. after    9 cycles
 SCF Done:  E(RwB97XD) =  -814.970215164     A.U. after    9 cycles
 SCF Done:  E(RwB97XD) =  -814.970215229     A.U. after    9 cycles
 Optimization completed.
    -- Stationary point found.
 Normal termination of Gaussian 16 at Fri Mar 29 05:07:34 2024.

 ----------------------------------------------------------------------
 #N Geom=AllCheck Guess=TCheck SCRF=Check GenChk RwB97XD/def2TZVPP Freq
 ----------------------------------------------------------------------

 Structure from the checkpoint file:  "HZIrMeH.chk"
 -------
 HZIrMeH
 -------
 Charge =  1 Multiplicity = 1

                         Standard orientation:
 ---------------------------------------------------------------------
 Center     Atomic      Atomic             Coordinates (Angstroms)
 Number     Number       Type             X           Y           Z
 ---------------------------------------------------------------------
      1          6           0       -1.695688   -1.184960   -0.176063
      2          6           0       -1.713972    1.152312   -0.184005
      3          6           0       -3.060769   -1.239941   -0.021894
      4          6           0       -3.082555    1.185235   -0.032040
      5          6           0       -3.760414   -0.032978    0.061622
      6          1           0       -3.591920   -2.178782    0.026781
      7          1           0       -3.617355    2.124057    0.007065
      8          8           0       -5.086239   -0.107201    0.222636
      9          7           0       -1.069570   -0.010013   -0.226098
     10          6           0       -0.774702   -2.351684   -0.428496
     11          1           0       -0.735258   -2.486982   -1.510110
     12          1           0       -1.157914   -3.275839    0.005988
     13          6           0       -0.812205    2.333445   -0.439146
     14          1           0       -0.767389    2.461817   -1.521442
     15          1           0       -1.212832    3.254326   -0.013301
     16          7           0        0.632680   -2.108765    0.037665
     17          7           0        0.595166    2.116066    0.038209
     18          6           0        3.030084    0.024639    0.272680
     19          1           0        3.216017    0.045097    1.358942
     20          1           0        3.563345   -0.854556   -0.106416
     21          1           0        3.552498    0.896404   -0.137438
     22          6           0        1.541815   -2.950040   -0.766174
     23          1           0        2.552991   -2.834306   -0.388066
     24          1           0        1.249152   -4.000908   -0.699607
     25          1           0        1.510320   -2.624625   -1.802151
     26          6           0        0.741432   -2.518242    1.456563
     27          1           0        0.524736   -3.583023    1.563572
     28          1           0        1.750229   -2.317039    1.808270
     29          1           0        0.030978   -1.951813    2.057320
     30          6           0        1.495337    2.976079   -0.755465
     31          1           0        1.183729    4.021455   -0.687647
     32          1           0        2.505451    2.876580   -0.369877
     33          1           0        1.477596    2.653634   -1.792709
     34          6           0        0.683536    2.522194    1.459563
     35          1           0        1.694018    2.343011    1.818230
     36          1           0        0.441411    3.581228    1.569081
     37          1           0       -0.017664    1.936089    2.052214
     38          1           0        1.163814    0.007755   -1.586450
     39         77           0        0.963561    0.006743   -0.069177
     40          1           0       -5.479565    0.767495    0.261989
 ---------------------------------------------------------------------

 SCF Done:  E(RwB97XD) =  -814.970215229     A.U. after    1 cycles

 The electronic state is 1-A.
 Alpha  occ. eigenvalues --  -19.31937 -14.52802 -14.52761 -14.49658 -10.40384
 Alpha  occ. eigenvalues --  -10.37624 -10.37490 -10.35867 -10.35781 -10.33498
 Alpha  occ. eigenvalues --  -10.33448 -10.32880 -10.32841 -10.32796 -10.32449
 Alpha  occ. eigenvalues --  -10.24495  -3.79093  -2.12320  -2.12024  -2.11575
 Alpha  occ. eigenvalues --   -1.21280  -1.12073  -1.08481  -1.07798  -0.94459
 Alpha  occ. eigenvalues --   -0.93676  -0.86564  -0.84496  -0.84220  -0.84078
 Alpha  occ. eigenvalues --   -0.77757  -0.76541  -0.75325  -0.73636  -0.73445
 Alpha  occ. eigenvalues --   -0.67589  -0.65360  -0.62608  -0.62087  -0.60787
 Alpha  occ. eigenvalues --   -0.60704  -0.59744  -0.59536  -0.58648  -0.56303
 Alpha  occ. eigenvalues --   -0.54861  -0.54063  -0.53074  -0.52977  -0.51724
 Alpha  occ. eigenvalues --   -0.51409  -0.50451  -0.49859  -0.49677  -0.48708
 Alpha  occ. eigenvalues --   -0.48348  -0.47892  -0.47284  -0.46689  -0.46054
 Alpha  occ. eigenvalues --   -0.45598  -0.45524  -0.44572  -0.40147  -0.38314
 Alpha  occ. eigenvalues --   -0.37438  -0.34459  -0.32792  -0.30357  -0.30061
 Alpha virt. eigenvalues --    0.00143   0.01147   0.02950   0.06863   0.08393
 Alpha virt. eigenvalues --    0.10281   0.10546   0.11227   0.12470   0.13323
 Alpha virt. eigenvalues --    0.13919   0.13984   0.14260   0.14830   0.15058

 Mulliken charges:
               1
     1  C    0.129212
     2  C    0.102081
     3  C   -0.198213
     4  C   -0.182282
     5  C    0.274996
     6  H    0.133086
     7  H    0.121148
     8  O   -0.278013
     9  N   -0.232709
    10  C   -0.086191
    11  H    0.130395
    12  H    0.125390
    13  C   -0.089469
    14  H    0.131142
    15  H    0.124878
    16  N   -0.053679
    17  N   -0.053263
    18  C   -0.621655
    19  H    0.084171
    20  H    0.079815
    21  H    0.080117
    22  C   -0.184511
    23  H    0.111766
    24  H    0.120465
    25  H    0.111741
    26  C   -0.205837
    27  H    0.113237
    28  H    0.125401
    29  H    0.118701
    30  C   -0.184254
    31  H    0.120135
    32  H    0.111771
    33  H    0.112186
    34  C   -0.205327
    35  H    0.125439
    36  H    0.113116
    37  H    0.118324
    38  H   -0.049591
    39  Ir   0.487810
    40  H    0.218470
 Sum of Mulliken charges =   1.00000

 Dipole moment (field-independent basis, Debye):
    X=             -6.3763    Y=              1.6003    Z=              1.3680  Tot=              6.7149
 Quadrupole moment (field-independent basis, Debye-Ang):
   XX=           -101.2930   YY=            -76.7061   ZZ=           -113.7795
   XY=             -9.7047   XZ=              0.7042   YZ=              0.4504

  Exact polarizability:     327.771      -1.118     277.311      -2.168      -0.056     187.107
 Approx polarizability:     260.511      -0.484     234.752      -3.898      -0.126     185.543

                      1                      2                      3
                      A                      A                      A
 Frequencies --     32.6173                35.7637                72.4869
 Red. masses --      2.2501                 3.6900                 1.3309
 Frc consts  --      0.0014                 0.0028                 0.0041
 IR Inten    --      0.3927                 0.5189                 0.3978

                      4                      5                      6
                      A                      A                      A
 Frequencies --     79.5087               149.6915               178.2443
 Red. masses --      2.9327                 2.8782                 3.9389
 Frc consts  --      0.0109                 0.0380                 0.0737
 IR Inten    --      4.2666                 2.6859                 3.2400

                      7                      8                      9
                      A                      A                      A
 Frequencies --    196.1862               197.3110               217.5927
 Red. masses --      3.2891                 3.4639                 2.8405
 Frc consts  --      0.0746                 0.0795                 0.0792
 IR Inten    --      2.0572                 1.6148                 0.9310

                     10                     11                     12
                      A                      A                      A
 Frequencies --    223.1565               248.2520               256.4611
 Red. masses --      3.1041                 2.8905                 3.7876
 Frc consts  --      0.0911                 0.1050                 0.1468
 IR Inten    --      1.1383                 1.8397                 0.1161

                     13                     14                     15
                      A                      A                      A
 Frequencies --    267.5271               271.0956               276.8183
 Red. masses --      2.0592                 4.1624                 1.3735
 Frc consts  --      0.0868                 0.1802                 0.0620
 IR Inten    --      1.4173                 2.6886                 1.7640

                     16                     17                     18
                      A                      A                      A
 Frequencies --    279.3740               289.5661               294.5706
 Red. masses --      3.3908                 2.1065                 1.4429
 Frc consts  --      0.1559                 0.1041                 0.0738
 IR Inten    --      1.4552                 2.9350                 1.1791

                     19                     20                     21
                      A                      A                      A
 Frequencies --    310.3576               319.3057               342.9342
 Red. masses --      1.0990                 1.2149                 3.3996
 Frc consts  --      0.0624                 0.0730                 0.2356
 IR Inten    --      1.1285                 1.8863                 7.2767

                     22                     23                     24
                      A                      A                      A
 Frequencies --    395.9504               409.4721               428.5598
 Red. masses --      2.2755                 2.2934                 1.1726
 Frc consts  --      0.2102                 0.2266                 0.1269
 IR Inten    --      4.7680                 1.1516               133.1111

                     25                     26                     27
                      A                      A                      A
 Frequencies --    452.8967               483.5930               496.6781
 Red. masses --      2.5014                 2.6413                 3.0216
 Frc consts  --      0.3023                 0.3639                 0.4392
 IR Inten    --     16.7439                13.0489                24.1176

                     28                     29                     30
                      A                      A                      A
 Frequencies --    515.1086               526.2945               539.1173
 Red. masses --      2.7932                 3.1762                 3.9877
 Frc consts  --      0.4367                 0.5183                 0.6829
 IR Inten    --      3.2262                15.7845                35.4860

                     31                     32                     33
                      A                      A                      A
 Frequencies --    543.2905               557.5079               592.3156
 Red. masses --      1.1011                 3.1157                 6.1646
 Frc consts  --      0.1915                 0.5706                 1.2743
 IR Inten    --      6.2830                14.9483                 6.5078

                     34                     35                     36
                      A                      A                      A
 Frequencies --    628.5565               689.5841               695.7470
 Red. masses --      3.3244                 1.0310                 5.4812
 Frc consts  --      0.7738                 0.2889                 1.5632
 IR Inten    --      0.7331                 9.1925                 1.8024

                     37                     38                     39
                      A                      A                      A
 Frequencies --    721.7135               755.6453               778.9672
 Red. masses --      3.4675                 1.9209                 1.7727
 Frc consts  --      1.0641                 0.6462                 0.6338
 IR Inten    --      5.4437                12.7934                 0.7324

                     40                     41                     42
                      A                      A                      A
 Frequencies --    812.3256               872.6201               879.1799
 Red. masses --      1.2543                 2.2065                 2.7323
 Frc consts  --      0.4877                 0.9899                 1.2443
 IR Inten    --      1.0249                46.3292                35.5053

                     43                     44                     45
                      A                      A                      A
 Frequencies --    903.4972               912.2872               966.0979
 Red. masses --      2.0411                 1.7369                 2.5491
 Frc consts  --      0.9817                 0.8517                 1.4018
 IR Inten    --     45.8169                34.0431                33.7794

                     46                     47                     48
                      A                      A                      A
 Frequencies --    988.8438               992.8460              1009.3611
 Red. masses --      2.1660                 3.0626                 2.5662
 Frc consts  --      1.2478                 1.7787                 1.5404
 IR Inten    --     13.7997                15.8900                35.1415

                     49                     50                     51
                      A                      A                      A
 Frequencies --   1020.7323              1049.1325              1051.0913
 Red. masses --      2.7844                 1.7487                 1.6864
 Frc consts  --      1.7092                 1.1341                 1.0977
 IR Inten    --     21.9686                 5.6651                14.2920

                     52                     53                     54
                      A                      A                      A
 Frequencies --   1056.8127              1077.9891              1134.9002
 Red. masses --      3.0979                 5.9338                 1.2637
 Frc consts  --      2.0385                 4.0627                 0.9590
 IR Inten    --     11.0440                56.4013                 0.3182

                     55                     56                     57
                      A                      A                      A
 Frequencies --   1137.4312              1180.2078              1187.7957
 Red. masses --      1.2626                 1.5109                 1.6150
 Frc consts  --      0.9624                 1.2399                 1.3424
 IR Inten    --      1.4665               185.7940                 6.2200

                     58                     59                     60
                      A                      A                      A
 Frequencies --   1191.6650              1205.2034              1222.8289
 Red. masses --      1.5284                 1.4943                 1.7020
 Frc consts  --      1.2787                 1.2789                 1.4995
 IR Inten    --     32.4803                 2.2343                32.0735

                     61                     62                     63
                      A                      A                      A
 Frequencies --   1228.3146              1248.7621              1270.7540
 Red. masses --      1.8526                 1.6564                 1.2094
 Frc consts  --      1.6469                 1.5219                 1.1506
 IR Inten    --      4.0226                54.4191                 4.8051

                     64                     65                     66
                      A                      A                      A
 Frequencies --   1275.1404              1280.4425              1322.6235
 Red. masses --      1.9402                 1.9843                 1.4842
 Frc consts  --      1.8587                 1.9168                 1.5297
 IR Inten    --      2.3129                 2.0636                18.0851

                     67                     68                     69
                      A                      A                      A
 Frequencies --   1324.3274              1347.4228              1384.5274
 Red. masses --      1.4698                 2.5874                 1.7483
 Frc consts  --      1.5188                 2.7677                 1.9746
 IR Inten    --      1.3918                69.0702                61.0115

                     70                     71                     72
                      A                      A                      A
 Frequencies --   1404.8716              1419.8144              1450.2027
 Red. masses --      1.5215                 3.8977                 1.0986
 Frc consts  --      1.7693                 4.6294                 1.3613
 IR Inten    --     48.7059                96.6459                 0.4627

                     73                     74                     75
                      A                      A                      A
 Frequencies --   1451.8324              1455.1428              1470.1442
 Red. masses --      1.1468                 1.1087                 1.1188
 Frc consts  --      1.4242                 1.3832                 1.4247
 IR Inten    --      4.4466                 0.9257                12.5409

                     76                     77                     78
                      A                      A                      A
 Frequencies --   1471.8180              1473.6339              1486.2555
 Red. masses --      1.1038                 1.0804                 1.1386
 Frc consts  --      1.4088                 1.3823                 1.4818
 IR Inten    --      9.4413                 1.8598                 5.2653

                     79                     80                     81
                      A                      A                      A
 Frequencies --   1488.2607              1489.5400              1490.5710
 Red. masses --      1.0510                 1.0557                 1.1397
 Frc consts  --      1.3715                 1.3800                 1.4919
 IR Inten    --      0.6162                 1.6767                 0.6956

                     82                     83                     84
                      A                      A                      A
 Frequencies --   1500.2783              1502.7066              1508.3756
 Red. masses --      1.0666                 1.0558                 1.3994
 Frc consts  --      1.4145                 1.4047                 1.8759
 IR Inten    --      9.3294                25.8160                83.4260

                     85                     86                     87
                      A                      A                      A
 Frequencies --   1509.6648              1511.6599              1513.1828
 Red. masses --      1.1361                 1.0535                 1.5248
 Frc consts  --      1.5256                 1.4184                 2.0571
 IR Inten    --     56.1062                35.5580               111.8265

                     88                     89                     90
                      A                      A                      A
 Frequencies --   1514.1144              1541.9793              1662.5545
 Red. masses --      1.0910                 3.8471                 7.9201
 Frc consts  --      1.4737                 5.3894                12.8983
 IR Inten    --      7.6885                 6.0329               150.6887

                     91                     92                     93
                      A                      A                      A
 Frequencies --   1687.0939              2482.1418              2957.6140
 Red. masses --      6.7660                 1.0131                 1.0476
 Frc consts  --     11.3465                 3.6774                 5.3994
 IR Inten    --    369.7593                57.4071               119.8528

                     94                     95                     96
                      A                      A                      A
 Frequencies --   3028.8444              3049.3003              3049.6437
 Red. masses --      1.0829                 1.0431                 1.0410
 Frc consts  --      5.8529                 5.7147                 5.7045
 IR Inten    --    118.3891                47.5677                31.2929

                     97                     98                     99
                      A                      A                      A
 Frequencies --   3051.2059              3052.7598              3054.8300
 Red. masses --      1.0388                 1.0388                 1.0984
 Frc consts  --      5.6980                 5.7036                 6.0393
 IR Inten    --     80.4372                37.4979                93.3251

                    100                    101                    102
                      A                      A                      A
 Frequencies --   3075.4306              3077.2803              3126.4296
 Red. masses --      1.0598                 1.0598                 1.1065
 Frc consts  --      5.9057                 5.9130                 6.3722
 IR Inten    --     21.0377                15.6790                 8.1912

                    103                    104                    105
                      A                      A                      A
 Frequencies --   3128.3336              3133.8846              3135.6464
 Red. masses --      1.1063                 1.1021                 1.1024
 Frc consts  --      6.3789                 6.3776                 6.3860
 IR Inten    --      8.5609                27.6538                21.2532

                    106                    107                    108
                      A                      A                      A
 Frequencies --   3149.9029              3150.1386              3168.6313
 Red. masses --      1.0932                 1.0932                 1.1052
 Frc consts  --      6.3905                 6.3918                 6.5376
 IR Inten    --     12.0109                12.1191                 7.4969

                    109                    110                    111
                      A                      A                      A
 Frequencies --   3169.2708              3188.7454              3188.8172
 Red. masses --      1.1053                 1.1062                 1.1061
 Frc consts  --      6.5412                 6.6270                 6.6269
 IR Inten    --      7.3941                 4.9321                17.1087

                    112                    113                    114
                      A                      A                      A
 Frequencies --   3224.0368              3241.0731              3877.5542
 Red. masses --      1.0938                 1.0940                 1.0664
 Frc consts  --      6.6989                 6.7709                 9.4469
 IR Inten    --      3.7921                 0.7487               214.4938

 - Thermochemistry -
 -------------------
 Temperature   298.150 Kelvin.  Pressure   1.00000 Atm.
 Atom     1 has atomic number  6 and mass  12.00000

 Molecular mass:   418.14741 amu.
 Principal axes and moments of inertia in atomic units:
                           1         2         3
     Eigenvalues --  3397.104895398.037938005.48289
           X            0.99996  -0.00897   0.00269
           Y            0.00897   0.99996   0.00030
           Z           -0.00269  -0.00028   1.00000
 This molecule is an asymmetric top.
 Rotational symmetry number  1.
 Warning -- assumption of classical behavior for rotation
           may cause significant error
 Rotational temperatures (Kelvin)      0.02550     0.01605     0.01082
 Rotational constants (GHZ):           0.53126     0.33433     0.22544
 Zero-point vibrational energy     915443.5 (Joules/Mol)
                                  218.79624 (Kcal/Mol)
 Warning -- explicit consideration of  33 degrees of freedom as
           vibrations may cause significant error
 Vibrational temperatures:     46.93    51.46   104.29   114.40   215.37
          (Kelvin)            256.45   282.27   283.89   313.07   321.07
                              357.18   368.99   384.91   390.05   398.28
                              401.96   416.62   423.82   446.54   459.41
                              493.41   569.68   589.14   616.60   651.62
                              695.78   714.61   741.13   757.22   775.67
                              781.67   802.13   852.21   904.35   992.16
                             1001.02  1038.38  1087.21  1120.76  1168.76
                             1255.51  1264.94  1299.93  1312.58  1390.00
                             1422.73  1428.48  1452.25  1468.61  1509.47
                             1512.29  1520.52  1550.99  1632.87  1636.51
                             1698.06  1708.97  1714.54  1734.02  1759.38
                             1767.27  1796.69  1828.33  1834.64  1842.27
                             1902.96  1905.41  1938.64  1992.03  2021.30
                             2042.80  2086.52  2088.86  2093.63  2115.21
                             2117.62  2120.23  2138.39  2141.28  2143.12
                             2144.60  2158.57  2162.06  2170.22  2172.07
                             2174.94  2177.13  2178.47  2218.56  2392.05
                             2427.35  3571.25  4255.35  4357.83  4387.26
                             4387.76  4390.00  4392.24  4395.22  4424.86
                             4427.52  4498.23  4500.97  4508.96  4511.50
                             4532.01  4532.35  4558.95  4559.87  4587.89
                             4588.00  4638.67  4663.18  5578.94

 Zero-point correction=                           0.348674 (Hartree/Particle)
 Thermal correction to Energy=                    0.367436
 Thermal correction to Enthalpy=                  0.368380
 Thermal correction to Gibbs Free Energy=         0.302492
 Sum of electronic and zero-point Energies=           -814.621541
 Sum of electronic and thermal Energies=              -814.602780
 Sum of electronic and thermal Enthalpies=            -814.601835
 Sum of electronic and thermal Free Energies=         -814.667724

                     E (Thermal)             CV                S
                      KCal/Mol        Cal/Mol-Kelvin    Cal/Mol-Kelvin
 Total                  230.569             74.027            138.673
 Electronic               0.000              0.000              0.000
 Translational            0.889              2.981             43.983
 Rotational               0.889              2.981             33.351
 Vibrational            228.792             68.066             61.340
 Vibration     1          0.594              1.983              5.664
 Vibration     2          0.594              1.982              5.481
 Vibration     3          0.599              1.967              4.085
 Vibration     4          0.600              1.963              3.903
 Vibration     5          0.618              1.903              2.676
 Vibration     6          0.629              1.869              2.347
 Vibration     7          0.636              1.845              2.169
 Vibration     8          0.637              1.844              2.158
 Vibration     9          0.646              1.814              1.979
 Vibration    10          0.649              1.806              1.933
 Vibration    11          0.662              1.766              1.743
 Vibration    12          0.666              1.752              1.686
 Vibration    13          0.673              1.733              1.612
 Vibration    14          0.675              1.726              1.589
 Vibration    15          0.678              1.716              1.553
 Vibration    16          0.680              1.712              1.538
 Vibration    17          0.686              1.693              1.476
 Vibration    18          0.689              1.684              1.448
 Vibration    19          0.699              1.654              1.360
 Vibration    20          0.705              1.637              1.314
 Vibration    21          0.722              1.590              1.198
 Vibration    22          0.763              1.479              0.978
 Vibration    23          0.774              1.450              0.928
 Vibration    24          0.790              1.408              0.863
 Vibration    25          0.811              1.354              0.787
 Vibration    26          0.840              1.286              0.700
 Vibration    27          0.852              1.257              0.666
 Vibration    28          0.870              1.217              0.621
 Vibration    29          0.881              1.192              0.596
 Vibration    30          0.894              1.164              0.567
 Vibration    31          0.898              1.154              0.558
 Vibration    32          0.913              1.123              0.529
 Vibration    33          0.950              1.048              0.463

                           ! Non-Optimized Parameters !
 Normal termination of Gaussian 16 at Fri Mar 29 11:27:27 2024.
