 Gaussian 16, Revision C.01,
 Gaussian 16:  ES64L-G16RevC.01  3-Jul-2019

 ----------------------------------------------------------
 # wb97xd def2TZVPP SCRF=(solvent=dichloromethane) opt freq
 ----------------------------------------------------------

 -------------
 HZIrMeH_sigma
 -------------
 Symbolic Z-matrix:
 Charge =  1 Multiplicity = 1

 SCF Done:  E(RwB97XD) =  -814.914438439     A.U. after   19 cycles
 SCF Done:  E(RwB97XD) =  -814.946314973     A.U. after   14 cycles
 SCF Done:  E(RwB97XD) =  -814.956089323     A.U. after   14 cycles
 SCF Done:  E(RwB97XD) =  -814.957440845     A.U. after   13 cycles
 SCF Done:  E(RwB97XD) =  -814.957877654     A.U. after   13 cycles
 SCF Done:  E(RwB97XD) =  -814.957971065     A.U. after   13 cycles
 SCF Done:  E(RwB97XD) =  -814.957996540     A.U. after   10 cycles
 SCF Done:  E(RwB97XD) =  -814.958014199     A.U. after   11 cycles
 SCF Done:  E(RwB97XD) =  -814.958023827     A.U. after   11 cycles
 SCF Done:  E(RwB97XD) =  -814.958026818     A.U. after   10 cycles
 SCF Done:  E(RwB97XD) =  -814.958028267     A.U. after   10 cycles
 SCF Done:  E(RwB97XD) =  -814.958028432     A.U. after    9 cycles
 Optimization completed.
    -- Stationary point found.
 Normal termination of Gaussian 16 at Fri Mar 29 00:25:05 2024.

 ----------------------------------------------------------------------
 #N Geom=AllCheck Guess=TCheck SCRF=Check GenChk RwB97XD/def2TZVPP Freq
 ----------------------------------------------------------------------

 Structure from the checkpoint file:  "HZIrMeH_sigma.chk"
 -------------
 HZIrMeH_sigma
 -------------
 Charge =  1 Multiplicity = 1

                         Standard orientation:
 ---------------------------------------------------------------------
 Center     Atomic      Atomic             Coordinates (Angstroms)
 Number     Number       Type             X           Y           Z
 ---------------------------------------------------------------------
      1          6           0       -1.677701   -1.183020   -0.157674
      2          6           0       -1.693048    1.155296   -0.159096
      3          6           0       -3.042611   -1.230913   -0.012649
      4          6           0       -3.061367    1.183483   -0.015307
      5          6           0       -3.745223   -0.028733    0.076474
      6          1           0       -3.569865   -2.172623    0.021430
      7          1           0       -3.590056    2.126076    0.015286
      8          8           0       -5.073046   -0.101877    0.231904
      9          7           0       -1.031699   -0.007985   -0.190330
     10          6           0       -0.780330   -2.355715   -0.428090
     11          1           0       -0.758125   -2.488644   -1.510616
     12          1           0       -1.166758   -3.276536    0.011447
     13          6           0       -0.813614    2.341938   -0.428138
     14          1           0       -0.793879    2.476682   -1.510508
     15          1           0       -1.213118    3.256548    0.012844
     16          7           0        0.624314   -2.107787    0.020251
     17          7           0        0.594679    2.114099    0.019559
     18          6           0        3.272344    0.020136    0.341556
     19          1           0        2.748682    0.018595    1.302386
     20          1           0        3.891805   -0.869903    0.272925
     21          1           0        3.881329    0.917137    0.269736
     22          6           0        1.534426   -2.920926   -0.809694
     23          1           0        2.550038   -2.799095   -0.442152
     24          1           0        1.263396   -3.979152   -0.758518
     25          1           0        1.484564   -2.578335   -1.839830
     26          6           0        0.755132   -2.542214    1.429650
     27          1           0        0.566174   -3.616297    1.511893
     28          1           0        1.760980   -2.327526    1.780697
     29          1           0        0.042578   -2.001674    2.047801
     30          6           0        1.493212    2.939003   -0.811375
     31          1           0        1.208348    3.993636   -0.760523
     32          1           0        2.510511    2.830696   -0.444234
     33          1           0        1.447419    2.595260   -1.841310
     34          6           0        0.720132    2.551441    1.428565
     35          1           0        1.729183    2.351750    1.779216
     36          1           0        0.515827    3.622793    1.510193
     37          1           0        0.016124    2.000915    2.047676
     38          1           0        2.650856    0.014910   -0.630571
     39         77           0        0.906410    0.004926   -0.086289
     40          1           0       -5.464378    0.773550    0.272033
 ---------------------------------------------------------------------

 SCF Done:  E(RwB97XD) =  -814.958028432     A.U. after    1 cycles

 The electronic state is 1-A.
 Alpha  occ. eigenvalues --  -19.31698 -14.52103 -14.52067 -14.51164 -10.39978
 Alpha  occ. eigenvalues --  -10.37358 -10.37231 -10.35506 -10.35419 -10.32912
 Alpha  occ. eigenvalues --  -10.32874 -10.32865 -10.32833 -10.32555 -10.32211
 Alpha  occ. eigenvalues --  -10.30853  -3.75288  -2.09806  -2.09230  -2.06150
 Alpha  occ. eigenvalues --   -1.20991  -1.12099  -1.08141  -1.07459  -0.94313
 Alpha  occ. eigenvalues --   -0.93716  -0.86474  -0.84086  -0.83877  -0.83845
 Alpha  occ. eigenvalues --   -0.83526  -0.77618  -0.76359  -0.73412  -0.73171
 Alpha  occ. eigenvalues --   -0.67402  -0.65319  -0.62481  -0.62054  -0.60589
 Alpha  occ. eigenvalues --   -0.60493  -0.59422  -0.59124  -0.58475  -0.56313
 Alpha  occ. eigenvalues --   -0.54908  -0.54451  -0.53819  -0.53010  -0.52755
 Alpha  occ. eigenvalues --   -0.52384  -0.51794  -0.51206  -0.50911  -0.49890
 Alpha  occ. eigenvalues --   -0.49184  -0.49135  -0.48241  -0.47990  -0.47316
 Alpha  occ. eigenvalues --   -0.46522  -0.45777  -0.44781  -0.39461  -0.38376
 Alpha  occ. eigenvalues --   -0.37137  -0.30669  -0.28536  -0.27589  -0.26867
 Alpha virt. eigenvalues --    0.00477   0.01442   0.07248   0.07726   0.08192
 Alpha virt. eigenvalues --    0.10170   0.10371   0.11025   0.12666   0.13389
 Alpha virt. eigenvalues --    0.13910   0.13975   0.14144   0.14255   0.15300

 Mulliken charges:
               1
     1  C    0.120254
     2  C    0.093309
     3  C   -0.198019
     4  C   -0.183672
     5  C    0.266968
     6  H    0.130726
     7  H    0.119061
     8  O   -0.281400
     9  N   -0.139484
    10  C   -0.073761
    11  H    0.127676
    12  H    0.123356
    13  C   -0.075517
    14  H    0.128074
    15  H    0.122797
    16  N   -0.070093
    17  N   -0.070497
    18  C   -0.326232
    19  H    0.131774
    20  H    0.119176
    21  H    0.119209
    22  C   -0.178781
    23  H    0.104808
    24  H    0.118130
    25  H    0.115191
    26  C   -0.198183
    27  H    0.109725
    28  H    0.114005
    29  H    0.124574
    30  C   -0.178700
    31  H    0.117934
    32  H    0.104981
    33  H    0.115270
    34  C   -0.197941
    35  H    0.114170
    36  H    0.109508
    37  H    0.124384
    38  H    0.062445
    39  Ir  -0.082923
    40  H    0.217699
 Sum of Mulliken charges =   1.00000

 Dipole moment (field-independent basis, Debye):
    X=             -1.9610    Y=              1.6406    Z=              0.8184  Tot=              2.6846
 Quadrupole moment (field-independent basis, Debye-Ang):
   XX=            -84.0430   YY=            -78.5438   ZZ=           -116.9810
   XY=             -9.5149   XZ=              1.5575   YZ=              0.4906

  Exact polarizability:     349.487      -1.209     280.026      -5.252       0.022     207.096
 Approx polarizability:     277.257      -0.465     236.086      -4.787      -0.033     195.211

                      1                      2                      3
                      A                      A                      A
 Frequencies --     56.9173                58.4271                65.7659
 Red. masses --      3.1326                 3.5547                 3.4119
 Frc consts  --      0.0060                 0.0071                 0.0087
 IR Inten    --      0.3612                 0.3399                 3.4642

                      4                      5                      6
                      A                      A                      A
 Frequencies --    122.8388               148.5382               175.6941
 Red. masses --      3.4872                 2.7872                 4.1825
 Frc consts  --      0.0310                 0.0362                 0.0761
 IR Inten    --     10.4957                 1.4182                 3.4287

                      7                      8                      9
                      A                      A                      A
 Frequencies --    203.1802               204.9241               209.3112
 Red. masses --      3.6242                 2.4526                 3.2862
 Frc consts  --      0.0881                 0.0607                 0.0848
 IR Inten    --      3.4501                 1.1528                 2.6845

                     10                     11                     12
                      A                      A                      A
 Frequencies --    229.6379               250.8950               263.2149
 Red. masses --      1.0868                 3.2444                 3.5535
 Frc consts  --      0.0338                 0.1203                 0.1451
 IR Inten    --      0.1210                 0.6423                 1.6705

                     13                     14                     15
                      A                      A                      A
 Frequencies --    269.6307               271.3228               276.2398
 Red. masses --      3.4830                 2.2690                 3.5205
 Frc consts  --      0.1492                 0.0984                 0.1583
 IR Inten    --      0.9930                 4.0983                 1.7337

                     16                     17                     18
                      A                      A                      A
 Frequencies --    277.9531               291.7515               293.6031
 Red. masses --      3.3653                 1.2007                 1.2519
 Frc consts  --      0.1532                 0.0602                 0.0636
 IR Inten    --      1.3833                 0.6735                 0.9401

                     19                     20                     21
                      A                      A                      A
 Frequencies --    303.5201               317.9649               319.9894
 Red. masses --      4.7183                 1.1169                 1.1166
 Frc consts  --      0.2561                 0.0665                 0.0674
 IR Inten    --      6.6980                 0.2083                 1.2650

                     22                     23                     24
                      A                      A                      A
 Frequencies --    358.3928               402.2197               416.9177
 Red. masses --      4.1481                 2.1723                 2.1206
 Frc consts  --      0.3139                 0.2071                 0.2172
 IR Inten    --      0.1007                16.3966                16.6821

                     25                     26                     27
                      A                      A                      A
 Frequencies --    417.9954               435.2293               456.4169
 Red. masses --      1.2493                 1.1682                 2.5839
 Frc consts  --      0.1286                 0.1304                 0.3171
 IR Inten    --    109.8173                13.6465                 5.0825

                     28                     29                     30
                      A                      A                      A
 Frequencies --    466.6599               489.5606               503.6318
 Red. masses --      1.1428                 2.6068                 3.0832
 Frc consts  --      0.1466                 0.3681                 0.4608
 IR Inten    --     25.0800                 8.8090                 7.7346

                     31                     32                     33
                      A                      A                      A
 Frequencies --    523.8588               530.7122               556.6412
 Red. masses --      2.8359                 3.2806                 3.0468
 Frc consts  --      0.4585                 0.5444                 0.5562
 IR Inten    --      1.6521                 7.7504                18.2228

                     34                     35                     36
                      A                      A                      A
 Frequencies --    619.6688               625.1379               698.2643
 Red. masses --      4.0441                 5.3827                 5.6088
 Frc consts  --      0.9149                 1.2394                 1.6112
 IR Inten    --     10.7167                28.6095                 1.8687

                     37                     38                     39
                      A                      A                      A
 Frequencies --    719.4511               755.2471               874.6573
 Red. masses --      3.6617                 3.3781                 1.9649
 Frc consts  --      1.1167                 1.1353                 0.8857
 IR Inten    --      9.7997                 4.3000                32.5676

                     40                     41                     42
                      A                      A                      A
 Frequencies --    882.2626               904.0019               911.4480
 Red. masses --      2.5407                 2.1611                 1.8622
 Frc consts  --      1.1652                 1.0405                 0.9115
 IR Inten    --     25.8692                45.3093                39.2931

                     43                     44                     45
                      A                      A                      A
 Frequencies --    973.1840               991.0538              1002.6974
 Red. masses --      2.5107                 2.2024                 2.8133
 Frc consts  --      1.4010                 1.2745                 1.6665
 IR Inten    --     17.3321                17.5009                 8.3727

                     46                     47                     48
                      A                      A                      A
 Frequencies --   1010.8991              1028.7523              1047.4428
 Red. masses --      2.5402                 2.6551                 1.7241
 Frc consts  --      1.5294                 1.6556                 1.1145
 IR Inten    --     49.8878                11.9237                 3.5493

                     49                     50                     51
                      A                      A                      A
 Frequencies --   1049.5538              1059.5527              1115.8702
 Red. masses --      1.6246                 3.1771                 6.6920
 Frc consts  --      1.0544                 2.1015                 4.9095
 IR Inten    --     11.0185                 9.5998                 1.2180

                     52                     53                     54
                      A                      A                      A
 Frequencies --   1134.4948              1138.1687              1174.8505
 Red. masses --      1.2648                 1.2634                 1.1864
 Frc consts  --      0.9591                 0.9643                 0.9649
 IR Inten    --      0.8517                 2.2929                13.1020

                     55                     56                     57
                      A                      A                      A
 Frequencies --   1180.2224              1186.0360              1191.3652
 Red. masses --      1.5116                 1.6188                 1.5558
 Frc consts  --      1.2406                 1.3417                 1.3011
 IR Inten    --    231.5651                 5.8128                62.7903

                     58                     59                     60
                      A                      A                      A
 Frequencies --   1206.2770              1219.7163              1224.4715
 Red. masses --      1.5029                 1.6778                 1.8241
 Frc consts  --      1.2885                 1.4707                 1.6114
 IR Inten    --      0.9156                29.1500                 2.3050

                     61                     62                     63
                      A                      A                      A
 Frequencies --   1247.7842              1277.7715              1283.1502
 Red. masses --      1.6427                 2.0148                 2.0717
 Frc consts  --      1.5069                 1.9382                 2.0097
 IR Inten    --     52.5266                 2.1222                 4.4601

                     64                     65                     66
                      A                      A                      A
 Frequencies --   1299.0317              1322.0459              1323.8746
 Red. masses --      1.1623                 1.6695                 1.4576
 Frc consts  --      1.1556                 1.7192                 1.5052
 IR Inten    --     60.7011                22.4449                12.0535

                     67                     68                     69
                      A                      A                      A
 Frequencies --   1341.0947              1383.9354              1403.2032
 Red. masses --      2.3480                 1.7242                 1.4553
 Frc consts  --      2.4881                 1.9456                 1.6882
 IR Inten    --     69.7953                73.6434                38.9824

                     70                     71                     72
                      A                      A                      A
 Frequencies --   1418.9034              1446.8724              1451.7226
 Red. masses --      4.2342                 1.1061                 1.1504
 Frc consts  --      5.0226                 1.3642                 1.4284
 IR Inten    --     31.1168                28.5425                 1.6096

                     73                     74                     75
                      A                      A                      A
 Frequencies --   1453.0299              1471.0098              1472.3660
 Red. masses --      1.1462                 1.1292                 1.1283
 Frc consts  --      1.4258                 1.4396                 1.4411
 IR Inten    --     29.2751                 8.3596                 4.2259

                     76                     77                     78
                      A                      A                      A
 Frequencies --   1481.6174              1484.6870              1485.2777
 Red. masses --      1.0384                 1.0449                 1.0430
 Frc consts  --      1.3431                 1.3570                 1.3556
 IR Inten    --      5.5340                 2.0922                 1.4435

                     79                     80                     81
                      A                      A                      A
 Frequencies --   1487.2507              1488.2216              1501.2347
 Red. masses --      1.1210                 1.1248                 1.0583
 Frc consts  --      1.4610                 1.4678                 1.4053
 IR Inten    --     13.1514                 7.5222                23.3815

                     82                     83                     84
                      A                      A                      A
 Frequencies --   1501.5977              1507.3027              1508.2274
 Red. masses --      1.0565                 1.0519                 1.2917
 Frc consts  --      1.4036                 1.4080                 1.7311
 IR Inten    --     18.2632                52.0314               125.0310

                     85                     86                     87
                      A                      A                      A
 Frequencies --   1508.5009              1511.3398              1513.2100
 Red. masses --      1.3866                 1.0686                 1.3892
 Frc consts  --      1.8591                 1.4382                 1.8742
 IR Inten    --     70.4373                36.2345               171.5560

                     88                     89                     90
                      A                      A                      A
 Frequencies --   1545.6367              1651.4864              1696.4387
 Red. masses --      3.9847                 7.5868                 6.8839
 Frc consts  --      5.6087                12.1915                11.6724
 IR Inten    --      7.5587               110.6372               298.4931

                     91                     92                     93
                      A                      A                      A
 Frequencies --   1752.9089              2368.9845              3039.5660
 Red. masses --      1.0236                 1.0745                 1.0437
 Frc consts  --      1.8531                 3.5529                 5.6815
 IR Inten    --    177.6574               172.5174                31.0414

                     94                     95                     96
                      A                      A                      A
 Frequencies --   3039.8715              3042.3367              3043.4137
 Red. masses --      1.0436                 1.0440                 1.0442
 Frc consts  --      5.6822                 5.6933                 5.6987
 IR Inten    --     35.5131               167.9471                21.0284

                     97                     98                     99
                      A                      A                      A
 Frequencies --   3045.2035              3073.9788              3074.9584
 Red. masses --      1.0484                 1.0596                 1.0596
 Frc consts  --      5.7279                 5.8995                 5.9031
 IR Inten    --      1.3186                24.5920                18.7755

                    100                    101                    102
                      A                      A                      A
 Frequencies --   3124.2051              3125.2621              3138.6668
 Red. masses --      1.1059                 1.1059                 1.0868
 Frc consts  --      6.3598                 6.3639                 6.3081
 IR Inten    --     10.3344                 8.4759                28.2698

                    103                    104                    105
                      A                      A                      A
 Frequencies --   3139.0434              3139.1635              3141.5613
 Red. masses --      1.0916                 1.0913                 1.0919
 Frc consts  --      6.3375                 6.3358                 6.3491
 IR Inten    --      6.6009                25.4799                22.1047

                    106                    107                    108
                      A                      A                      A
 Frequencies --   3141.9499              3176.8501              3176.9223
 Red. masses --      1.0918                 1.1064                 1.1064
 Frc consts  --      6.3504                 6.5786                 6.5790
 IR Inten    --     15.2360                10.3343                 5.7373

                    109                    110                    111
                      A                      A                      A
 Frequencies --   3179.7007              3180.1457              3185.3685
 Red. masses --      1.1063                 1.1062                 1.1057
 Frc consts  --      6.5902                 6.5914                 6.6099
 IR Inten    --     11.1814                18.6519                 8.4019

                    112                    113                    114
                      A                      A                      A
 Frequencies --   3223.7735              3241.5910              3878.8716
 Red. masses --      1.0937                 1.0937                 1.0664
 Frc consts  --      6.6970                 6.7714                 9.4533
 IR Inten    --      4.3692                 0.9702               232.8567

 - Thermochemistry -
 -------------------
 Temperature   298.150 Kelvin.  Pressure   1.00000 Atm.
 Atom     1 has atomic number  6 and mass  12.00000

 Molecular mass:   418.14741 amu.
 Principal axes and moments of inertia in atomic units:
                           1         2         3
     Eigenvalues --  3385.481785381.536887990.60079
           X            0.99995  -0.00857   0.00451
           Y            0.00857   0.99996   0.00029
           Z           -0.00451  -0.00026   0.99999
 This molecule is an asymmetric top.
 Rotational symmetry number  1.
 Warning -- assumption of classical behavior for rotation
           may cause significant error
 Rotational temperatures (Kelvin)      0.02558     0.01609     0.01084
 Rotational constants (GHZ):           0.53308     0.33536     0.22586
 Zero-point vibrational energy     922538.7 (Joules/Mol)
                                  220.49204 (Kcal/Mol)
 Warning -- explicit consideration of  34 degrees of freedom as
           vibrations may cause significant error
 Vibrational temperatures:     81.89    84.06    94.62   176.74   213.71
          (Kelvin)            252.78   292.33   294.84   301.15   330.40
                              360.98   378.71   387.94   390.37   397.45
                              399.91   419.77   422.43   436.70   457.48
                              460.39   515.65   578.70   599.85   601.40
                              626.20   656.68   671.42   704.37   724.61
                              753.72   763.58   800.88   891.57   899.43
                             1004.65  1035.13  1086.63  1258.44  1269.38
                             1300.66  1311.37  1400.19  1425.91  1442.66
                             1454.46  1480.15  1507.04  1510.07  1524.46
                             1605.49  1632.29  1637.57  1690.35  1698.08
                             1706.44  1714.11  1735.56  1754.90  1761.74
                             1795.28  1838.43  1846.17  1869.02  1902.13
                             1904.76  1929.54  1991.17  2018.90  2041.49
                             2081.73  2088.70  2090.59  2116.46  2118.41
                             2131.72  2136.13  2136.98  2139.82  2141.22
                             2159.94  2160.46  2168.67  2170.00  2170.40
                             2174.48  2177.17  2223.83  2376.12  2440.80
                             2522.04  3408.44  4373.26  4373.70  4377.24
                             4378.79  4381.37  4422.77  4424.18  4495.03
                             4496.56  4515.84  4516.38  4516.56  4520.01
                             4520.57  4570.78  4570.88  4574.88  4575.52
                             4583.03  4638.29  4663.93  5580.83

 Zero-point correction=                           0.351376 (Hartree/Particle)
 Thermal correction to Energy=                    0.370162
 Thermal correction to Enthalpy=                  0.371106
 Thermal correction to Gibbs Free Energy=         0.306159
 Sum of electronic and zero-point Energies=           -814.606652
 Sum of electronic and thermal Energies=              -814.587866
 Sum of electronic and thermal Enthalpies=            -814.586922
 Sum of electronic and thermal Free Energies=         -814.651870

                     E (Thermal)             CV                S
                      KCal/Mol        Cal/Mol-Kelvin    Cal/Mol-Kelvin
 Total                  232.280             73.859            136.693
 Electronic               0.000              0.000              0.000
 Translational            0.889              2.981             43.983
 Rotational               0.889              2.981             33.342
 Vibrational            230.503             67.897             59.368
 Vibration     1          0.596              1.975              4.561
 Vibration     2          0.596              1.974              4.510
 Vibration     3          0.597              1.971              4.276
 Vibration     4          0.610              1.930              3.055
 Vibration     5          0.618              1.904              2.691
 Vibration     6          0.628              1.872              2.374
 Vibration     7          0.639              1.835              2.104
 Vibration     8          0.640              1.833              2.088
 Vibration     9          0.642              1.827              2.050
 Vibration    10          0.652              1.796              1.882
 Vibration    11          0.663              1.761              1.724
 Vibration    12          0.670              1.740              1.640
 Vibration    13          0.674              1.729              1.599
 Vibration    14          0.675              1.726              1.588
 Vibration    15          0.678              1.717              1.557
 Vibration    16          0.679              1.714              1.546
 Vibration    17          0.687              1.689              1.464
 Vibration    18          0.688              1.686              1.453
 Vibration    19          0.695              1.667              1.397
 Vibration    20          0.704              1.639              1.321
 Vibration    21          0.706              1.635              1.310
 Vibration    22          0.733              1.558              1.129
 Vibration    23          0.768              1.465              0.955
 Vibration    24          0.780              1.433              0.903
 Vibration    25          0.781              1.431              0.899
 Vibration    26          0.796              1.393              0.842
 Vibration    27          0.815              1.347              0.777
 Vibration    28          0.824              1.324              0.747
 Vibration    29          0.845              1.273              0.685
 Vibration    30          0.859              1.242              0.649
 Vibration    31          0.879              1.197              0.601
 Vibration    32          0.886              1.182              0.586
 Vibration    33          0.912              1.125              0.531
 Vibration    34          0.980              0.990              0.417

 Optimization completed.
    -- Stationary point found.
 Normal termination of Gaussian 16 at Fri Mar 29 07:11:10 2024.
