 Gaussian 16, Revision C.01,
 Gaussian 16:  ES64L-G16RevC.01  3-Jul-2019

 ----------------------------------------------------------
 # wb97xd def2TZVPP SCRF=(solvent=dichloromethane) opt freq
 ----------------------------------------------------------

 ------
 HZIrMe
 ------
 Symbolic Z-matrix:
 Charge =  0 Multiplicity = 1

 SCF Done:  E(RwB97XD) =  -814.461238790     A.U. after   19 cycles
 SCF Done:  E(RwB97XD) =  -814.467333751     A.U. after   15 cycles
 SCF Done:  E(RwB97XD) =  -814.466219864     A.U. after   17 cycles
 SCF Done:  E(RwB97XD) =  -814.467509311     A.U. after   16 cycles
 SCF Done:  E(RwB97XD) =  -814.467926982     A.U. after   13 cycles
 SCF Done:  E(RwB97XD) =  -814.467970439     A.U. after   13 cycles
 SCF Done:  E(RwB97XD) =  -814.467976418     A.U. after   12 cycles
 SCF Done:  E(RwB97XD) =  -814.467977818     A.U. after   12 cycles
 Optimization completed.
    -- Stationary point found.
 Normal termination of Gaussian 16 at Mon May 20 22:20:02 2024.

 ----------------------------------------------------------------------
 #N Geom=AllCheck Guess=TCheck SCRF=Check GenChk RwB97XD/def2TZVPP Freq
 ----------------------------------------------------------------------

 Structure from the checkpoint file:  "HZIrMe.chk"
 ------
 HZIrMe
 ------
 Charge =  0 Multiplicity = 1

                         Standard orientation:
 ---------------------------------------------------------------------
 Center     Atomic      Atomic             Coordinates (Angstroms)
 Number     Number       Type             X           Y           Z
 ---------------------------------------------------------------------
      1          6           0        1.686285    1.150870   -0.195708
      2          6           0        1.668208   -1.182305   -0.193018
      3          6           0        3.056674    1.178403   -0.038350
      4          6           0        3.035148   -1.233506   -0.035071
      5          6           0        3.738279   -0.033350    0.058272
      6          1           0        3.588583    2.120107    0.000450
      7          1           0        3.562203   -2.176017    0.007618
      8          8           0        5.077975   -0.105176    0.225688
      9          7           0        1.017993   -0.009176   -0.231029
     10          6           0        0.793853    2.332970   -0.460948
     11          1           0        0.729869    2.441947   -1.545189
     12          1           0        1.207247    3.260822   -0.057381
     13          6           0        0.755427   -2.348843   -0.457961
     14          1           0        0.691168   -2.457588   -1.542172
     15          1           0        1.153056   -3.282979   -0.053298
     16          7           0       -0.600381    2.117817    0.037434
     17          7           0       -0.635725   -2.110133    0.038246
     18          6           0       -1.520068    2.962131   -0.741823
     19          1           0       -2.526446    2.828330   -0.353597
     20          1           0       -1.240787    4.019614   -0.670059
     21          1           0       -1.500378    2.647356   -1.782264
     22          6           0       -0.667761    2.535308    1.451838
     23          1           0       -0.457258    3.607316    1.543395
     24          1           0       -1.661483    2.326317    1.838479
     25          1           0        0.059821    1.974387    2.033339
     26          6           0       -1.568108   -2.938227   -0.743417
     27          1           0       -1.305950   -4.000132   -0.672999
     28          1           0       -2.572733   -2.788924   -0.356367
     29          1           0       -1.541917   -2.622112   -1.783326
     30          6           0       -0.712821   -2.527068    1.452323
     31          1           0       -1.703728   -2.301857    1.837063
     32          1           0       -0.520271   -3.602413    1.543718
     33          1           0        0.022939   -1.978716    2.035538
     34         77           0       -0.952355    0.006118   -0.074444
     35          1           0        5.456013    0.774890    0.267399
     36          6           0       -3.053097    0.022363    0.223400
     37          1           0       -3.432178    0.900067    0.773751
     38          1           0       -3.598478    0.029859   -0.735822
     39          1           0       -3.447043   -0.851944    0.768617
 ---------------------------------------------------------------------

 SCF Done:  E(RwB97XD) =  -814.467977818     A.U. after    1 cycles

 The electronic state is 1-A.
 Alpha  occ. eigenvalues --  -19.29358 -14.48833 -14.48804 -14.46691 -10.36845
 Alpha  occ. eigenvalues --  -10.33848 -10.33774 -10.32868 -10.32795 -10.30482
 Alpha  occ. eigenvalues --  -10.30445 -10.30415 -10.30383 -10.30084 -10.29748
 Alpha  occ. eigenvalues --  -10.20672  -3.69282  -2.03259  -2.02982  -2.00592
 Alpha  occ. eigenvalues --   -1.18295  -1.08435  -1.05224  -1.04391  -0.91139
 Alpha  occ. eigenvalues --   -0.90831  -0.83530  -0.81454  -0.81304  -0.81242
 Alpha  occ. eigenvalues --   -0.74744  -0.73400  -0.71487  -0.70554  -0.70300
 Alpha  occ. eigenvalues --   -0.64569  -0.62212  -0.59501  -0.59105  -0.57854
 Alpha  occ. eigenvalues --   -0.57797  -0.56749  -0.56387  -0.55670  -0.53259
 Alpha  occ. eigenvalues --   -0.51830  -0.51286  -0.50153  -0.50058  -0.49011
 Alpha  occ. eigenvalues --   -0.48431  -0.47632  -0.46798  -0.46691  -0.45762
 Alpha  occ. eigenvalues --   -0.45533  -0.44746  -0.44091  -0.43593  -0.41839
 Alpha  occ. eigenvalues --   -0.41699  -0.41313  -0.36323  -0.35562  -0.34487
 Alpha  occ. eigenvalues --   -0.29728  -0.23683  -0.23135  -0.22135  -0.21079
 Alpha virt. eigenvalues --    0.03616   0.03959   0.09681   0.10273   0.11547
 Alpha virt. eigenvalues --    0.12024   0.12529   0.13232   0.14863   0.15662
 Alpha virt. eigenvalues --    0.15741   0.16049   0.16508   0.16562   0.17333

 Mulliken charges:
               1
     1  C    0.085808
     2  C    0.114496
     3  C   -0.197086
     4  C   -0.210347
     5  C    0.245077
     6  H    0.110584
     7  H    0.121626
     8  O   -0.307465
     9  N   -0.164950
    10  C   -0.093498
    11  H    0.116666
    12  H    0.109636
    13  C   -0.091447
    14  H    0.116415
    15  H    0.110441
    16  N   -0.029222
    17  N   -0.029044
    18  C   -0.178165
    19  H    0.109316
    20  H    0.104164
    21  H    0.102244
    22  C   -0.206062
    23  H    0.095314
    24  H    0.116134
    25  H    0.115171
    26  C   -0.178322
    27  H    0.104464
    28  H    0.109067
    29  H    0.102128
    30  C   -0.206127
    31  H    0.115941
    32  H    0.095598
    33  H    0.115336
    34  Ir  -0.233780
    35  H    0.210266
    36  C   -0.661239
    37  H    0.046668
    38  H    0.067547
    39  H    0.046647
 Sum of Mulliken charges =  -0.00000

 Dipole moment (field-independent basis, Debye):
    X=              8.0436    Y=              1.5711    Z=              0.4108  Tot=              8.2059
 Quadrupole moment (field-independent basis, Debye-Ang):
   XX=           -125.7383   YY=            -92.1140   ZZ=           -123.7659
   XY=              9.6400   XZ=             -0.0233   YZ=              0.4723

  Exact polarizability:     405.423       1.139     299.054       8.562      -0.002     233.980
 Approx polarizability:     306.680       0.428     247.612       6.386      -0.060     211.387

                      1                      2                      3
                      A                      A                      A
 Frequencies --     46.9121                67.4250                78.2649
 Red. masses --      1.4083                 3.9801                 2.2461
 Frc consts  --      0.0018                 0.0107                 0.0081
 IR Inten    --      0.1721                 0.2355                 2.8816

                      4                      5                      6
                      A                      A                      A
 Frequencies --     79.8150               135.2121               176.6106
 Red. masses --      2.6152                 2.9004                 4.0744
 Frc consts  --      0.0098                 0.0312                 0.0749
 IR Inten    --      9.2658                 2.4702                 7.0435

                      7                      8                      9
                      A                      A                      A
 Frequencies --    187.8505               204.8021               205.7442
 Red. masses --      2.7369                 3.4658                 2.7969
 Frc consts  --      0.0569                 0.0856                 0.0698
 IR Inten    --      1.6801                 5.5848                 2.2810

                     10                     11                     12
                      A                      A                      A
 Frequencies --    209.7866               244.6253               263.3814
 Red. masses --      3.5263                 3.6869                 4.1379
 Frc consts  --      0.0914                 0.1300                 0.1691
 IR Inten    --      1.0444                 0.6790                 3.8643

                     13                     14                     15
                      A                      A                      A
 Frequencies --    269.7910               270.1318               275.8138
 Red. masses --      2.6843                 3.0887                 3.0630
 Frc consts  --      0.1151                 0.1328                 0.1373
 IR Inten    --      5.6558                 2.1152                 2.8550

                     16                     17                     18
                      A                      A                      A
 Frequencies --    289.8217               293.7888               313.9308
 Red. masses --      1.1728                 1.1875                 2.4956
 Frc consts  --      0.0580                 0.0604                 0.1449
 IR Inten    --      1.1034                 0.3964                 6.6355

                     19                     20                     21
                      A                      A                      A
 Frequencies --    318.5400               320.9437               357.5209
 Red. masses --      1.3196                 1.1938                 4.1464
 Frc consts  --      0.0789                 0.0724                 0.3123
 IR Inten    --      1.1903                 0.6277                 1.0891

                     22                     23                     24
                      A                      A                      A
 Frequencies --    372.2673               402.3112               414.8651
 Red. masses --      1.1186                 2.3101                 2.2512
 Frc consts  --      0.0913                 0.2203                 0.2283
 IR Inten    --    138.7849                 3.6355                 0.3429

                     25                     26                     27
                      A                      A                      A
 Frequencies --    453.9734               483.9767               491.3323
 Red. masses --      2.6129                 2.5418                 3.2427
 Frc consts  --      0.3173                 0.3508                 0.4612
 IR Inten    --      8.0619                 9.9660                34.8704

                     28                     29                     30
                      A                      A                      A
 Frequencies --    507.8943               512.2982               520.9915
 Red. masses --      3.1251                 3.0948                 3.2543
 Frc consts  --      0.4750                 0.4786                 0.5204
 IR Inten    --     12.3755                 0.2606                11.6857

                     31                     32                     33
                      A                      A                      A
 Frequencies --    548.2519               599.6619               604.4972
 Red. masses --      3.2577                 5.4844                 3.4625
 Frc consts  --      0.5769                 1.1620                 0.7455
 IR Inten    --     13.2779                86.1552                23.5094

                     34                     35                     36
                      A                      A                      A
 Frequencies --    664.1337               694.1481               714.8451
 Red. masses --      1.3620                 5.2675                 3.7334
 Frc consts  --      0.3540                 1.4954                 1.1240
 IR Inten    --     22.3087                 1.2705                32.8187

                     37                     38                     39
                      A                      A                      A
 Frequencies --    761.1419               777.1047               867.1805
 Red. masses --      3.5543                 1.2595                 1.9400
 Frc consts  --      1.2132                 0.4481                 0.8595
 IR Inten    --      2.8939                 1.1454                32.0735

                     40                     41                     42
                      A                      A                      A
 Frequencies --    874.4476               895.4618               903.1725
 Red. masses --      2.5520                 2.2663                 1.8316
 Frc consts  --      1.1497                 1.0707                 0.8803
 IR Inten    --     26.9338                42.2889                37.3897

                     43                     44                     45
                      A                      A                      A
 Frequencies --    966.6398               986.2957              1000.7514
 Red. masses --      2.4735                 2.1321                 2.8527
 Frc consts  --      1.3618                 1.2220                 1.6833
 IR Inten    --     12.9758                14.5107                14.2032

                     46                     47                     48
                      A                      A                      A
 Frequencies --   1009.1569              1023.3483              1047.4010
 Red. masses --      2.5838                 2.7005                 1.7216
 Frc consts  --      1.5504                 1.6663                 1.1128
 IR Inten    --     73.2391                 3.7144                 3.3400

                     49                     50                     51
                      A                      A                      A
 Frequencies --   1049.1227              1056.2303              1081.2763
 Red. masses --      1.5984                 2.9961                 6.2690
 Frc consts  --      1.0366                 1.9693                 4.3184
 IR Inten    --     11.5142                10.6506                30.6329

                     52                     53                     54
                      A                      A                      A
 Frequencies --   1127.1431              1130.4779              1167.2346
 Red. masses --      1.2734                 1.2686                 1.5360
 Frc consts  --      0.9532                 0.9552                 1.2330
 IR Inten    --      1.1510                 2.5571               308.6650

                     55                     56                     57
                      A                      A                      A
 Frequencies --   1181.4788              1186.9649              1198.0297
 Red. masses --      1.4416                 1.5737                 1.6106
 Frc consts  --      1.1856                 1.3063                 1.3620
 IR Inten    --      5.3523                52.9351                 3.0081

                     58                     59                     60
                      A                      A                      A
 Frequencies --   1211.7703              1214.6132              1226.1746
 Red. masses --      1.7532                 1.8494                 1.2007
 Frc consts  --      1.5167                 1.6076                 1.0636
 IR Inten    --     13.1974                 3.2825                 3.6492

                     61                     62                     63
                      A                      A                      A
 Frequencies --   1239.6252              1277.6535              1282.7008
 Red. masses --      1.6619                 2.0273                 2.0630
 Frc consts  --      1.5046                 1.9498                 1.9999
 IR Inten    --     66.4660                 3.3051                 5.3636

                     64                     65                     66
                      A                      A                      A
 Frequencies --   1312.1523              1315.1669              1339.5147
 Red. masses --      1.8689                 1.5198                 2.0819
 Frc consts  --      1.8958                 1.5489                 2.2009
 IR Inten    --     44.6257                29.9907                75.8681

                     67                     68                     69
                      A                      A                      A
 Frequencies --   1373.5411              1393.0055              1397.1338
 Red. masses --      1.7764                 1.4322                 3.8952
 Frc consts  --      1.9746                 1.6374                 4.4798
 IR Inten    --     77.5763                31.8179                 5.3357

                     70                     71                     72
                      A                      A                      A
 Frequencies --   1441.6111              1442.1638              1451.5447
 Red. masses --      1.1500                 1.1566                 1.0729
 Frc consts  --      1.4081                 1.4173                 1.3319
 IR Inten    --      0.1981                12.0400                 0.7468

                     73                     74                     75
                      A                      A                      A
 Frequencies --   1460.4932              1466.0299              1466.9600
 Red. masses --      1.1748                 1.1350                 1.0956
 Frc consts  --      1.4764                 1.4373                 1.3891
 IR Inten    --     29.5886                 4.6050                11.8758

                     76                     77                     78
                      A                      A                      A
 Frequencies --   1479.3523              1480.2744              1482.6392
 Red. masses --      1.1645                 1.1449                 1.0920
 Frc consts  --      1.5016                 1.4781                 1.4143
 IR Inten    --     73.4149                60.0910                20.3295

                     79                     80                     81
                      A                      A                      A
 Frequencies --   1483.0472              1489.3749              1495.0379
 Red. masses --      1.1019                 1.9219                 1.0556
 Frc consts  --      1.4280                 2.5118                 1.3901
 IR Inten    --     36.0084               230.2466                 8.1072

                     82                     83                     84
                      A                      A                      A
 Frequencies --   1496.5173              1498.0316              1501.2297
 Red. masses --      1.0587                 1.0543                 1.0788
 Frc consts  --      1.3970                 1.3939                 1.4325
 IR Inten    --     28.1551                 6.5527                83.3102

                     85                     86                     87
                      A                      A                      A
 Frequencies --   1506.7283              1507.3941              1532.2749
 Red. masses --      1.0448                 1.0455                 3.8937
 Frc consts  --      1.3975                 1.3996                 5.3862
 IR Inten    --     31.0586                 7.8051                 3.3295

                     88                     89                     90
                      A                      A                      A
 Frequencies --   1640.3036              1687.5916              2920.4098
 Red. masses --      7.4497                 6.6057                 1.0337
 Frc consts  --     11.8097                11.0841                 5.1943
 IR Inten    --     68.3074               128.1887               372.4680

                     91                     92                     93
                      A                      A                      A
 Frequencies --   2962.4754              2962.9074              3012.4049
 Red. masses --      1.0962                 1.0979                 1.0503
 Frc consts  --      5.6685                 5.6786                 5.6156
 IR Inten    --    112.2611               181.8580                59.8439

                     94                     95                     96
                      A                      A                      A
 Frequencies --   3013.3490              3015.0400              3016.5983
 Red. masses --      1.0500                 1.0496                 1.0498
 Frc consts  --      5.6173                 5.6218                 5.6283
 IR Inten    --     57.0655               331.3469                23.6916

                     97                     98                     99
                      A                      A                      A
 Frequencies --   3054.8901              3056.3962              3106.2585
 Red. masses --      1.0604                 1.0602                 1.1040
 Frc consts  --      5.8303                 5.8350                 6.2764
 IR Inten    --     70.9697                42.5580                13.5094

                    100                    101                    102
                      A                      A                      A
 Frequencies --   3107.3882              3129.5172              3129.5791
 Red. masses --      1.1042                 1.0850                 1.0851
 Frc consts  --      6.2817                 6.2611                 6.2618
 IR Inten    --     12.3892                 9.9073                 8.9862

                    103                    104                    105
                      A                      A                      A
 Frequencies --   3132.0374              3132.2626              3172.8950
 Red. masses --      1.0834                 1.0834                 1.1056
 Frc consts  --      6.2617                 6.2627                 6.5578
 IR Inten    --     45.1318                 2.1595                 5.5029

                    106                    107                    108
                      A                      A                      A
 Frequencies --   3173.0650              3176.2207              3176.3368
 Red. masses --      1.1056                 1.1055                 1.1055
 Frc consts  --      6.5582                 6.5709                 6.5713
 IR Inten    --     13.3210                 2.7173                28.9655

                    109                    110                    111
                      A                      A                      A
 Frequencies --   3208.9117              3228.3800              3892.0506
 Red. masses --      1.0929                 1.0930                 1.0662
 Frc consts  --      6.6307                 6.7121                 9.5162
 IR Inten    --     16.2384                 7.8493               210.6955

 - Thermochemistry -
 -------------------
 Temperature   298.150 Kelvin.  Pressure   1.00000 Atm.
 Atom     1 has atomic number  6 and mass  12.00000

 Molecular mass:   417.13959 amu.
 Principal axes and moments of inertia in atomic units:
                           1         2         3
     Eigenvalues --  3380.299045337.292387951.92251
           X            0.99995   0.00909  -0.00344
           Y           -0.00909   0.99996   0.00029
           Z            0.00345  -0.00026   0.99999
 This molecule is an asymmetric top.
 Rotational symmetry number  1.
 Warning -- assumption of classical behavior for rotation
           may cause significant error
 Rotational temperatures (Kelvin)      0.02562     0.01623     0.01089
 Rotational constants (GHZ):           0.53390     0.33814     0.22696
 Zero-point vibrational energy     886775.3 (Joules/Mol)
                                  211.94437 (Kcal/Mol)
 Warning -- explicit consideration of  33 degrees of freedom as
           vibrations may cause significant error
 Vibrational temperatures:     67.50    97.01   112.61   114.84   194.54
          (Kelvin)            254.10   270.28   294.66   296.02   301.84
                              351.96   378.95   388.17   388.66   396.83
                              416.99   422.70   451.68   458.31   461.77
                              514.39   535.61   578.84   596.90   653.17
                              696.33   706.92   730.75   737.08   749.59
                              788.81   862.78   869.74   955.54   998.72
                             1028.50  1095.11  1118.08  1247.68  1258.14
                             1288.37  1299.46  1390.78  1419.06  1439.86
                             1451.95  1472.37  1506.98  1509.45  1519.68
                             1555.72  1621.71  1626.51  1679.39  1699.88
                             1707.78  1723.70  1743.47  1747.56  1764.19
                             1783.54  1838.26  1845.52  1887.89  1892.23
                             1927.26  1976.22  2004.22  2010.16  2074.16
                             2074.95  2088.45  2101.32  2109.29  2110.63
                             2128.46  2129.78  2133.19  2133.77  2142.88
                             2151.03  2153.15  2155.33  2159.93  2167.85
                             2168.80  2204.60  2360.03  2428.07  4201.82
                             4262.34  4262.96  4334.18  4335.54  4337.97
                             4340.21  4395.31  4397.47  4469.21  4470.84
                             4502.68  4502.77  4506.30  4506.63  4565.09
                             4565.33  4569.87  4570.04  4616.91  4644.92
                             5599.79

 Zero-point correction=                           0.337755 (Hartree/Particle)
 Thermal correction to Energy=                    0.356251
 Thermal correction to Enthalpy=                  0.357195
 Thermal correction to Gibbs Free Energy=         0.292455
 Sum of electronic and zero-point Energies=           -814.130223
 Sum of electronic and thermal Energies=              -814.111727
 Sum of electronic and thermal Enthalpies=            -814.110783
 Sum of electronic and thermal Free Energies=         -814.175523

                     E (Thermal)             CV                S
                      KCal/Mol        Cal/Mol-Kelvin    Cal/Mol-Kelvin
 Total                  223.551             72.642            136.256
 Electronic               0.000              0.000              0.000
 Translational            0.889              2.981             43.975
 Rotational               0.889              2.981             33.328
 Vibrational            221.773             66.681             58.953
 Vibration     1          0.595              1.979              4.943
 Vibration     2          0.598              1.970              4.227
 Vibration     3          0.600              1.964              3.934
 Vibration     4          0.600              1.963              3.895
 Vibration     5          0.613              1.918              2.871
 Vibration     6          0.628              1.871              2.364
 Vibration     7          0.633              1.857              2.249
 Vibration     8          0.640              1.833              2.090
 Vibration     9          0.640              1.832              2.081
 Vibration    10          0.642              1.826              2.046
 Vibration    11          0.660              1.772              1.769
 Vibration    12          0.670              1.740              1.639
 Vibration    13          0.674              1.729              1.598
 Vibration    14          0.674              1.728              1.595
 Vibration    15          0.677              1.718              1.559
 Vibration    16          0.686              1.693              1.475
 Vibration    17          0.689              1.685              1.452
 Vibration    18          0.702              1.647              1.342
 Vibration    19          0.705              1.638              1.318
 Vibration    20          0.706              1.633              1.305
 Vibration    21          0.733              1.560              1.133
 Vibration    22          0.744              1.529              1.070
 Vibration    23          0.768              1.465              0.954
 Vibration    24          0.778              1.438              0.910
 Vibration    25          0.812              1.352              0.784
 Vibration    26          0.840              1.286              0.699
 Vibration    27          0.847              1.269              0.680
 Vibration    28          0.863              1.233              0.639
 Vibration    29          0.867              1.223              0.628
 Vibration    30          0.876              1.204              0.608
 Vibration    31          0.903              1.144              0.548
 Vibration    32          0.958              1.033              0.450
 Vibration    33          0.963              1.022              0.442

                           ! Non-Optimized Parameters !
 Normal termination of Gaussian 16 at Mon May 20 23:36:46 2024.
