 Gaussian 16, Revision C.01,
 Gaussian 16:  ES64L-G16RevC.01  3-Jul-2019

 ----------------------------------------------------------
 # wb97xd def2TZVPP SCRF=(solvent=dichloromethane) opt freq
 ----------------------------------------------------------

 ------
 HZPtMe
 ------
 Symbolic Z-matrix:
 Charge =  1 Multiplicity = 1

 SCF Done:  E(RwB97XD) =  -829.310642840     A.U. after   18 cycles
 SCF Done:  E(RwB97XD) =  -829.349486531     A.U. after   13 cycles
 SCF Done:  E(RwB97XD) =  -829.368715199     A.U. after   15 cycles
 SCF Done:  E(RwB97XD) =  -829.371591428     A.U. after   13 cycles
 SCF Done:  E(RwB97XD) =  -829.372501452     A.U. after   13 cycles
 SCF Done:  E(RwB97XD) =  -829.372806765     A.U. after   12 cycles
 SCF Done:  E(RwB97XD) =  -829.372956839     A.U. after   12 cycles
 SCF Done:  E(RwB97XD) =  -829.372984432     A.U. after   12 cycles
 SCF Done:  E(RwB97XD) =  -829.373018678     A.U. after   10 cycles
 SCF Done:  E(RwB97XD) =  -829.373023439     A.U. after   10 cycles
 SCF Done:  E(RwB97XD) =  -829.373896237     A.U. after   10 cycles
 SCF Done:  E(RwB97XD) =  -829.373905099     A.U. after    9 cycles
 SCF Done:  E(RwB97XD) =  -829.373912457     A.U. after   10 cycles
 SCF Done:  E(RwB97XD) =  -829.373914468     A.U. after    9 cycles
 SCF Done:  E(RwB97XD) =  -829.373913840     A.U. after   10 cycles
 SCF Done:  E(RwB97XD) =  -829.373918529     A.U. after    9 cycles
 SCF Done:  E(RwB97XD) =  -829.373919970     A.U. after    9 cycles
 SCF Done:  E(RwB97XD) =  -829.373920188     A.U. after    7 cycles
 SCF Done:  E(RwB97XD) =  -829.373920170     A.U. after    5 cycles
 Optimization completed.
    -- Stationary point found.
 Normal termination of Gaussian 16 at Tue May 21 03:56:47 2024.

 ----------------------------------------------------------------------
 #N Geom=AllCheck Guess=TCheck SCRF=Check GenChk RwB97XD/def2TZVPP Freq
 ----------------------------------------------------------------------

 Structure from the checkpoint file:  "HZPtMe.chk"
 ------
 HZPtMe
 ------
 Charge =  1 Multiplicity = 1

                         Standard orientation:
 ---------------------------------------------------------------------
 Center     Atomic      Atomic             Coordinates (Angstroms)
 Number     Number       Type             X           Y           Z
 ---------------------------------------------------------------------
      1         78           0       -0.943337    0.004959   -0.071286
      2          6           0        1.703268    1.156250   -0.199798
      3          6           0        1.688289   -1.183177   -0.199469
      4          6           0        3.070020    1.190756   -0.038304
      5          6           0        3.051665   -1.237055   -0.036629
      6          6           0        3.748535   -0.028060    0.052546
      7          1           0        3.602798    2.129747    0.016220
      8          1           0        3.583622   -2.174753    0.021298
      9          8           0        5.071669   -0.101202    0.222634
     10          7           0        1.066067   -0.007864   -0.261033
     11          6           0        0.792371    2.335520   -0.428797
     12          1           0        0.752134    2.498038   -1.506285
     13          1           0        1.178283    3.246951    0.028891
     14          6           0        0.759637   -2.347840   -0.431223
     15          1           0        0.714807   -2.505489   -1.509240
     16          1           0        1.133244   -3.266382    0.022192
     17          7           0       -0.614936    2.086760    0.040453
     18          7           0       -0.643110   -2.080482    0.041477
     19          6           0       -2.989990    0.017969    0.191749
     20          1           0       -3.345552    0.899005    0.737173
     21          1           0       -3.502873    0.017744   -0.777399
     22          1           0       -3.355396   -0.855518    0.742768
     23          6           0       -1.536147    2.915091   -0.764827
     24          1           0       -2.547015    2.780954   -0.391386
     25          1           0       -1.259996    3.969642   -0.691431
     26          1           0       -1.494104    2.595760   -1.802629
     27          6           0       -0.720674    2.492013    1.462559
     28          1           0       -0.524345    3.562593    1.557587
     29          1           0       -1.721019    2.273567    1.824404
     30          1           0        0.001926    1.937260    2.056088
     31          6           0       -1.577098   -2.896860   -0.761392
     32          1           0       -1.313548   -3.954704   -0.689274
     33          1           0       -2.585117   -2.750480   -0.384787
     34          1           0       -1.534194   -2.577672   -1.799213
     35          6           0       -0.750477   -2.484120    1.463926
     36          1           0       -1.746569   -2.251563    1.828733
     37          1           0       -0.568818   -3.557307    1.558408
     38          1           0       -0.018155   -1.939765    2.055205
     39          1           0        5.464249    0.773376    0.273609
 ---------------------------------------------------------------------

 SCF Done:  E(RwB97XD) =  -829.373920170     A.U. after    1 cycles

 The electronic state is 1-A.
 Alpha  occ. eigenvalues --  -19.32149 -14.53471 -14.53437 -14.49996 -10.40702
 Alpha  occ. eigenvalues --  -10.37994 -10.37848 -10.36195 -10.36106 -10.33357
 Alpha  occ. eigenvalues --  -10.33320 -10.33207 -10.33176 -10.33016 -10.32671
 Alpha  occ. eigenvalues --  -10.25464  -4.03334  -2.28084  -2.27620  -2.24848
 Alpha  occ. eigenvalues --   -1.21535  -1.12487  -1.08807  -1.08143  -0.94790
 Alpha  occ. eigenvalues --   -0.93928  -0.86830  -0.84629  -0.84362  -0.84333
 Alpha  occ. eigenvalues --   -0.78038  -0.76816  -0.76275  -0.73962  -0.73731
 Alpha  occ. eigenvalues --   -0.67907  -0.65726  -0.62884  -0.62468  -0.61071
 Alpha  occ. eigenvalues --   -0.60992  -0.59965  -0.59750  -0.58889  -0.56543
 Alpha  occ. eigenvalues --   -0.55183  -0.54321  -0.53310  -0.53261  -0.52043
 Alpha  occ. eigenvalues --   -0.51538  -0.50595  -0.50328  -0.49863  -0.48858
 Alpha  occ. eigenvalues --   -0.48525  -0.48299  -0.48065  -0.47236  -0.46723
 Alpha  occ. eigenvalues --   -0.46535  -0.46490  -0.40851  -0.38744  -0.37737
 Alpha  occ. eigenvalues --   -0.35837  -0.34732  -0.34037  -0.32066  -0.31627
 Alpha virt. eigenvalues --    0.00259   0.00962   0.04707   0.07858   0.08426
 Alpha virt. eigenvalues --    0.10323   0.10556   0.11433   0.12551   0.13518
 Alpha virt. eigenvalues --    0.13896   0.14223   0.14366   0.14565   0.14900

 Mulliken charges:
               1
     1  Pt   0.303992
     2  C    0.113657
     3  C    0.139753
     4  C   -0.179462
     5  C   -0.195039
     6  C    0.280030
     7  H    0.122286
     8  H    0.134300
     9  O   -0.274571
    10  N   -0.229475
    11  C   -0.073320
    12  H    0.132211
    13  H    0.125703
    14  C   -0.071610
    15  H    0.131839
    16  H    0.126219
    17  N   -0.068974
    18  N   -0.068367
    19  C   -0.591232
    20  H    0.079297
    21  H    0.101032
    22  H    0.079473
    23  C   -0.183445
    24  H    0.116823
    25  H    0.122273
    26  H    0.115533
    27  C   -0.203395
    28  H    0.111878
    29  H    0.124803
    30  H    0.126994
    31  C   -0.183618
    32  H    0.122441
    33  H    0.116640
    34  H    0.115500
    35  C   -0.203409
    36  H    0.124559
    37  H    0.112140
    38  H    0.127091
    39  H    0.219451
 Sum of Mulliken charges =   1.00000

 Dipole moment (field-independent basis, Debye):
    X=              6.1124    Y=              1.6196    Z=              0.0786  Tot=              6.3238
 Quadrupole moment (field-independent basis, Debye-Ang):
   XX=            -95.6326   YY=            -74.5205   ZZ=           -113.8927
   XY=              9.6235   XZ=              0.3989   YZ=              0.4858

  Exact polarizability:     318.367       1.160     273.213       5.168       0.074     188.324
 Approx polarizability:     254.344       0.490     231.850       5.013       0.014     181.489

                      1                      2                      3
                      A                      A                      A
 Frequencies --     41.9712                51.2140                71.6500
 Red. masses --      2.1288                 3.9253                 3.9471
 Frc consts  --      0.0022                 0.0061                 0.0119
 IR Inten    --      0.3911                 1.0287                 5.8026

                      4                      5                      6
                      A                      A                      A
 Frequencies --     90.8362               148.3512               178.4431
 Red. masses --      1.2880                 2.8561                 4.1458
 Frc consts  --      0.0063                 0.0370                 0.0778
 IR Inten    --      0.3371                 2.4928                 2.6673

                      7                      8                      9
                      A                      A                      A
 Frequencies --    201.5208               202.3503               206.9121
 Red. masses --      3.7494                 3.0075                 2.6819
 Frc consts  --      0.0897                 0.0726                 0.0677
 IR Inten    --      1.2380                 1.1944                 1.3922

                     10                     11                     12
                      A                      A                      A
 Frequencies --    219.8569               250.1697               257.2668
 Red. masses --      2.9506                 3.3614                 3.9740
 Frc consts  --      0.0840                 0.1239                 0.1550
 IR Inten    --      0.4728                 0.9257                 1.1588

                     13                     14                     15
                      A                      A                      A
 Frequencies --    265.5333               268.4701               283.5305
 Red. masses --      2.7732                 2.1883                 1.7593
 Frc consts  --      0.1152                 0.0929                 0.0833
 IR Inten    --      0.4419                 1.8599                 2.2372

                     16                     17                     18
                      A                      A                      A
 Frequencies --    284.8322               285.9945               287.9484
 Red. masses --      1.9249                 1.8879                 1.9567
 Frc consts  --      0.0920                 0.0910                 0.0956
 IR Inten    --      0.6624                 2.3668                 0.5282

                     19                     20                     21
                      A                      A                      A
 Frequencies --    311.9536               315.5075               345.5370
 Red. masses --      1.1170                 1.1547                 3.8195
 Frc consts  --      0.0640                 0.0677                 0.2687
 IR Inten    --      0.6878                 1.0707                 6.9015

                     22                     23                     24
                      A                      A                      A
 Frequencies --    402.2517               413.1555               436.8432
 Red. masses --      2.2457                 2.2276                 1.1654
 Frc consts  --      0.2141                 0.2240                 0.1310
 IR Inten    --      3.3879                 0.1699               135.5253

                     25                     26                     27
                      A                      A                      A
 Frequencies --    453.2355               487.3946               497.5333
 Red. masses --      2.4952                 2.8377                 3.0574
 Frc consts  --      0.3020                 0.3972                 0.4459
 IR Inten    --     16.1399                 9.0574                18.5468

                     28                     29                     30
                      A                      A                      A
 Frequencies --    529.2060               535.9661               561.8129
 Red. masses --      2.9424                 3.3425                 4.1055
 Frc consts  --      0.4855                 0.5657                 0.7635
 IR Inten    --      3.5512                 7.9943                25.8901

                     31                     32                     33
                      A                      A                      A
 Frequencies --    565.8664               603.5823               626.6907
 Red. masses --      2.9811                 6.4170                 3.8064
 Frc consts  --      0.5624                 1.3774                 0.8808
 IR Inten    --     22.0185                 2.5857                 0.6448

                     34                     35                     36
                      A                      A                      A
 Frequencies --    694.3502               722.1904               755.6879
 Red. masses --      5.5799                 3.5864                 2.3223
 Frc consts  --      1.5850                 1.1021                 0.7814
 IR Inten    --      2.3179                 4.1312                14.1770

                     37                     38                     39
                      A                      A                      A
 Frequencies --    787.5451               831.9597               876.0251
 Red. masses --      1.4440                 1.2584                 2.0567
 Frc consts  --      0.5277                 0.5132                 0.9299
 IR Inten    --      7.8603                 0.3020                44.5780

                     40                     41                     42
                      A                      A                      A
 Frequencies --    882.2426               905.9110               914.2054
 Red. masses --      2.6119                 2.0770                 1.7805
 Frc consts  --      1.1978                 1.0043                 0.8768
 IR Inten    --     38.8513                49.2264                36.8633

                     43                     44                     45
                      A                      A                      A
 Frequencies --    967.2293               989.5206               993.1062
 Red. masses --      2.5998                 2.2678                 2.9638
 Frc consts  --      1.4330                 1.3083                 1.7222
 IR Inten    --     34.9759                 0.9637                25.7941

                     46                     47                     48
                      A                      A                      A
 Frequencies --   1010.5476              1019.2580              1048.0728
 Red. masses --      2.4864                 2.7541                 1.8393
 Frc consts  --      1.4960                 1.6858                 1.1904
 IR Inten    --     31.0954                22.5734                 5.5780

                     49                     50                     51
                      A                      A                      A
 Frequencies --   1050.4685              1056.5653              1092.0023
 Red. masses --      1.6669                 2.9532                 6.4376
 Frc consts  --      1.0837                 1.9424                 4.5229
 IR Inten    --     17.2484                 6.9883                94.7283

                     52                     53                     54
                      A                      A                      A
 Frequencies --   1135.0154              1138.0265              1181.4521
 Red. masses --      1.2599                 1.2604                 1.5058
 Frc consts  --      0.9563                 0.9618                 1.2384
 IR Inten    --      0.6964                 2.8682               155.9044

                     55                     56                     57
                      A                      A                      A
 Frequencies --   1185.9338              1190.7271              1205.7740
 Red. masses --      1.6289                 1.5582                 1.4574
 Frc consts  --      1.3498                 1.3016                 1.2484
 IR Inten    --      5.1042                44.2913                 3.4809

                     58                     59                     60
                      A                      A                      A
 Frequencies --   1223.5432              1229.1311              1251.4327
 Red. masses --      1.6826                 1.8470                 1.6684
 Frc consts  --      1.4841                 1.6440                 1.5395
 IR Inten    --     34.2833                 4.7397                53.3763

                     61                     62                     63
                      A                      A                      A
 Frequencies --   1275.2945              1276.3340              1280.7714
 Red. masses --      1.9421                 1.2473                 1.9040
 Frc consts  --      1.8610                 1.1972                 1.8402
 IR Inten    --      2.2494                 9.0807                 0.1477

                     64                     65                     66
                      A                      A                      A
 Frequencies --   1322.7012              1324.8382              1349.3124
 Red. masses --      1.4680                 1.4207                 2.6812
 Frc consts  --      1.5132                 1.4691                 2.8761
 IR Inten    --     15.0936                 4.4643                66.1544

                     67                     68                     69
                      A                      A                      A
 Frequencies --   1385.4285              1406.3775              1422.5801
 Red. masses --      1.7164                 1.5628                 3.9633
 Frc consts  --      1.9411                 1.8212                 4.7257
 IR Inten    --     54.4142                54.7546               126.2621

                     70                     71                     72
                      A                      A                      A
 Frequencies --   1451.9951              1453.3574              1462.2867
 Red. masses --      1.1356                 1.1480                 1.0790
 Frc consts  --      1.4106                 1.4287                 1.3593
 IR Inten    --      1.4054                 8.3309                 3.5832

                     73                     74                     75
                      A                      A                      A
 Frequencies --   1468.4201              1474.9035              1475.9057
 Red. masses --      1.1045                 1.1181                 1.0865
 Frc consts  --      1.4032                 1.4330                 1.3944
 IR Inten    --      2.2093                 5.7341                 1.3421

                     76                     77                     78
                      A                      A                      A
 Frequencies --   1485.4980              1486.7624              1487.5789
 Red. masses --      1.0690                 1.0517                 1.0904
 Frc consts  --      1.3899                 1.3697                 1.4217
 IR Inten    --      1.2048                 1.4753                 4.1223

                     79                     80                     81
                      A                      A                      A
 Frequencies --   1491.5849              1499.5774              1501.2600
 Red. masses --      1.1238                 1.0686                 1.0630
 Frc consts  --      1.4731                 1.4158                 1.4116
 IR Inten    --      2.6462                12.1907                30.1853

                     82                     83                     84
                      A                      A                      A
 Frequencies --   1505.9091              1508.3202              1510.1809
 Red. masses --      1.0512                 1.0547                 1.1483
 Frc consts  --      1.4045                 1.4137                 1.5430
 IR Inten    --      4.5968                45.4465                67.3828

                     85                     86                     87
                      A                      A                      A
 Frequencies --   1510.4071              1515.8603              1544.6528
 Red. masses --      1.0895                 2.4797                 3.8688
 Frc consts  --      1.4644                 3.3571                 5.4386
 IR Inten    --     30.7199               121.1847                 6.8290

                     88                     89                     90
                      A                      A                      A
 Frequencies --   1664.8430              1688.0349              2994.7794
 Red. masses --      8.0064                 6.8448                 1.0332
 Frc consts  --     13.0747                11.4914                 5.4598
 IR Inten    --    165.1861               395.4946               118.0699

                     91                     92                     93
                      A                      A                      A
 Frequencies --   3050.3559              3050.8790              3052.2796
 Red. masses --      1.0412                 1.0410                 1.0418
 Frc consts  --      5.7080                 5.7091                 5.7187
 IR Inten    --     20.5967                19.8665               150.5098

                     94                     95                     96
                      A                      A                      A
 Frequencies --   3053.5095              3059.9090              3063.4825
 Red. masses --      1.0417                 1.0999                 1.1009
 Frc consts  --      5.7228                 6.0674                 6.0875
 IR Inten    --     18.2750                53.2252                96.4714

                     97                     98                     99
                      A                      A                      A
 Frequencies --   3082.5420              3083.0718              3134.1227
 Red. masses --      1.0599                 1.0599                 1.1063
 Frc consts  --      5.9338                 5.9358                 6.4024
 IR Inten    --     16.0205                11.7992                 8.1926

                    100                    101                    102
                      A                      A                      A
 Frequencies --   3134.7312              3145.9940              3146.2320
 Red. masses --      1.1063                 1.0958                 1.0960
 Frc consts  --      6.4049                 6.3897                 6.3920
 IR Inten    --      5.7493                11.8412                12.1996

                    103                    104                    105
                      A                      A                      A
 Frequencies --   3148.8707              3149.0734              3184.1225
 Red. masses --      1.0951                 1.0952                 1.1062
 Frc consts  --      6.3978                 6.3990                 6.6079
 IR Inten    --     17.3984                 9.5590                 5.1624

                    106                    107                    108
                      A                      A                      A
 Frequencies --   3184.1866              3186.1686              3186.2757
 Red. masses --      1.1061                 1.1063                 1.1063
 Frc consts  --      6.6077                 6.6172                 6.6177
 IR Inten    --      2.6592                 8.5162                17.1532

                    109                    110                    111
                      A                      A                      A
 Frequencies --   3225.4034              3242.0554              3875.6312
 Red. masses --      1.0940                 1.0942                 1.0664
 Frc consts  --      6.7056                 6.7764                 9.4376
 IR Inten    --      3.1595                 0.5542               214.4316

 - Thermochemistry -
 -------------------
 Temperature   298.150 Kelvin.  Pressure   1.00000 Atm.
 Atom     1 has atomic number 78 and mass 194.96480

 Molecular mass:   419.14109 amu.
 Principal axes and moments of inertia in atomic units:
                           1         2         3
     Eigenvalues --  3323.007935344.306757894.08460
           X            0.99996   0.00851  -0.00298
           Y           -0.00851   0.99996   0.00028
           Z            0.00298  -0.00026   1.00000
 This molecule is an asymmetric top.
 Rotational symmetry number  1.
 Warning -- assumption of classical behavior for rotation
           may cause significant error
 Rotational temperatures (Kelvin)      0.02606     0.01621     0.01097
 Rotational constants (GHZ):           0.54310     0.33769     0.22862
 Zero-point vibrational energy     895320.9 (Joules/Mol)
                                  213.98683 (Kcal/Mol)
 Warning -- explicit consideration of  32 degrees of freedom as
           vibrations may cause significant error
 Vibrational temperatures:     60.39    73.69   103.09   130.69   213.44
          (Kelvin)            256.74   289.94   291.14   297.70   316.33
                              359.94   370.15   382.04   386.27   407.94
                              409.81   411.48   414.29   448.83   453.94
                              497.15   578.75   594.44   628.52   652.10
                              701.25   715.84   761.41   771.14   808.32
                              814.16   868.42   901.67   999.02  1039.07
                             1087.27  1133.10  1197.00  1260.40  1269.35
                             1303.40  1315.34  1391.63  1423.70  1428.86
                             1453.95  1466.48  1507.94  1511.39  1520.16
                             1571.15  1633.03  1637.37  1699.85  1706.29
                             1713.19  1734.84  1760.41  1768.45  1800.53
                             1834.86  1836.36  1842.74  1903.07  1906.15
                             1941.36  1993.32  2023.46  2046.78  2089.10
                             2091.06  2103.90  2112.73  2122.06  2123.50
                             2137.30  2139.12  2140.29  2146.06  2157.56
                             2159.98  2166.67  2170.14  2172.81  2173.14
                             2180.98  2222.41  2395.34  2428.71  4308.82
                             4388.78  4389.53  4391.55  4393.32  4402.53
                             4407.67  4435.09  4435.85  4509.30  4510.18
                             4526.38  4526.73  4530.52  4530.81  4581.24
                             4581.33  4584.19  4584.34  4640.64  4664.59
                             5576.17

 Zero-point correction=                           0.341010 (Hartree/Particle)
 Thermal correction to Energy=                    0.359319
 Thermal correction to Enthalpy=                  0.360263
 Thermal correction to Gibbs Free Energy=         0.295598
 Sum of electronic and zero-point Energies=           -829.032910
 Sum of electronic and thermal Energies=              -829.014601
 Sum of electronic and thermal Enthalpies=            -829.013657
 Sum of electronic and thermal Free Energies=         -829.078322

                     E (Thermal)             CV                S
                      KCal/Mol        Cal/Mol-Kelvin    Cal/Mol-Kelvin
 Total                  225.476             71.740            136.098
 Electronic               0.000              0.000              0.000
 Translational            0.889              2.981             43.990
 Rotational               0.889              2.981             33.305
 Vibrational            223.698             65.779             58.803
 Vibration     1          0.595              1.980              5.164
 Vibration     2          0.595              1.977              4.770
 Vibration     3          0.598              1.968              4.108
 Vibration     4          0.602              1.956              3.642
 Vibration     5          0.618              1.904              2.693
 Vibration     6          0.629              1.869              2.345
 Vibration     7          0.638              1.838              2.119
 Vibration     8          0.639              1.837              2.112
 Vibration     9          0.641              1.830              2.071
 Vibration    10          0.647              1.811              1.960
 Vibration    11          0.663              1.762              1.729
 Vibration    12          0.667              1.750              1.680
 Vibration    13          0.671              1.736              1.625
 Vibration    14          0.673              1.731              1.606
 Vibration    15          0.682              1.704              1.512
 Vibration    16          0.683              1.702              1.504
 Vibration    17          0.684              1.700              1.498
 Vibration    18          0.685              1.696              1.486
 Vibration    19          0.700              1.651              1.352
 Vibration    20          0.703              1.644              1.333
 Vibration    21          0.724              1.584              1.186
 Vibration    22          0.768              1.465              0.954
 Vibration    23          0.777              1.442              0.916
 Vibration    24          0.797              1.390              0.837
 Vibration    25          0.812              1.354              0.786
 Vibration    26          0.843              1.278              0.690
 Vibration    27          0.853              1.255              0.664
 Vibration    28          0.884              1.185              0.589
 Vibration    29          0.891              1.170              0.574
 Vibration    30          0.918              1.114              0.520
 Vibration    31          0.922              1.105              0.512
 Vibration    32          0.962              1.024              0.444

                           ! Non-Optimized Parameters !
 Normal termination of Gaussian 16 at Tue May 21 05:18:42 2024.
