 Gaussian 16, Revision C.01,
 Gaussian 16:  ES64L-G16RevC.01  3-Jul-2019

 ----------------------------------------------------------
 # wb97xd def2TZVPP SCRF=(solvent=dichloromethane) opt freq
 ----------------------------------------------------------

 -------
 HZPtMeH
 -------
 Symbolic Z-matrix:
 Charge =  2 Multiplicity = 1

 SCF Done:  E(RwB97XD) =  -829.688003631     A.U. after   18 cycles
 SCF Done:  E(RwB97XD) =  -829.726004781     A.U. after   14 cycles
 SCF Done:  E(RwB97XD) =  -829.747227849     A.U. after   15 cycles
 SCF Done:  E(RwB97XD) =  -829.753574545     A.U. after   12 cycles
 SCF Done:  E(RwB97XD) =  -829.756810226     A.U. after   13 cycles
 SCF Done:  E(RwB97XD) =  -829.757878482     A.U. after   12 cycles
 SCF Done:  E(RwB97XD) =  -829.759480780     A.U. after   11 cycles
 SCF Done:  E(RwB97XD) =  -829.760231430     A.U. after   11 cycles
 SCF Done:  E(RwB97XD) =  -829.760572624     A.U. after   11 cycles
 SCF Done:  E(RwB97XD) =  -829.760661869     A.U. after   10 cycles
 SCF Done:  E(RwB97XD) =  -829.760703428     A.U. after    6 cycles
 SCF Done:  E(RwB97XD) =  -829.760703524     A.U. after    7 cycles
 SCF Done:  E(RwB97XD) =  -829.760703606     A.U. after    7 cycles
 SCF Done:  E(RwB97XD) =  -829.760703562     A.U. after    7 cycles
 SCF Done:  E(RwB97XD) =  -829.760703458     A.U. after    6 cycles
 SCF Done:  E(RwB97XD) =  -829.760703782     A.U. after    8 cycles
 SCF Done:  E(RwB97XD) =  -829.760703878     A.U. after    7 cycles
 SCF Done:  E(RwB97XD) =  -829.760703968     A.U. after    7 cycles
 SCF Done:  E(RwB97XD) =  -829.760703904     A.U. after    7 cycles
 Optimization completed.
    -- Stationary point found.
 Normal termination of Gaussian 16 at Fri Mar 29 09:25:15 2024.

 ----------------------------------------------------------------------
 #N Geom=AllCheck Guess=TCheck SCRF=Check GenChk RwB97XD/def2TZVPP Freq
 ----------------------------------------------------------------------

 Structure from the checkpoint file:  "HZPtMeH.chk"
 -------
 HZPtMeH
 -------
 Charge =  2 Multiplicity = 1

                         Standard orientation:
 ---------------------------------------------------------------------
 Center     Atomic      Atomic             Coordinates (Angstroms)
 Number     Number       Type             X           Y           Z
 ---------------------------------------------------------------------
      1         78           0       -0.947838    0.003737   -0.083895
      2          6           0        1.722361    1.165976   -0.178437
      3          6           0        1.711745   -1.185958   -0.187603
      4          6           0        3.086189    1.201871   -0.026236
      5          6           0        3.072143   -1.236393   -0.034344
      6          6           0        3.767325   -0.021077    0.049544
      7          1           0        3.619070    2.140013    0.028578
      8          1           0        3.609902   -2.170681    0.016353
      9          8           0        5.082878   -0.096205    0.201334
     10          7           0        1.096556   -0.005235   -0.247695
     11          6           0        0.802602    2.339594   -0.398404
     12          1           0        0.767863    2.520289   -1.472719
     13          1           0        1.166443    3.246782    0.081265
     14          6           0        0.776868   -2.345386   -0.417575
     15          1           0        0.726616   -2.508077   -1.494278
     16          1           0        1.135137   -3.264184    0.043628
     17          7           0       -0.617696    2.081015    0.053972
     18          7           0       -0.634290   -2.076356    0.055551
     19          6           0       -2.987105    0.006248    0.195509
     20          1           0       -3.149883   -0.065783    1.275052
     21          1           0       -3.455987    0.919210   -0.165542
     22          1           0       -3.476135   -0.836832   -0.288330
     23          6           0       -1.517666    2.962629   -0.728006
     24          1           0       -2.530330    2.865166   -0.352172
     25          1           0       -1.193092    3.996989   -0.615886
     26          1           0       -1.484614    2.678225   -1.775123
     27          6           0       -0.743609    2.420186    1.501575
     28          1           0       -0.515491    3.475600    1.644910
     29          1           0       -1.759881    2.220828    1.829163
     30          1           0       -0.040509    1.822291    2.080370
     31          6           0       -1.553590   -2.954474   -0.707253
     32          1           0       -1.234690   -3.990833   -0.596012
     33          1           0       -2.559013   -2.846161   -0.314669
     34          1           0       -1.535624   -2.675734   -1.756185
     35          6           0       -0.737577   -2.410186    1.506031
     36          1           0       -1.748376   -2.211553    1.849688
     37          1           0       -0.505687   -3.464566    1.650044
     38          1           0       -0.026471   -1.808439    2.070947
     39          1           0       -1.339829    0.007767   -1.532810
     40          1           0        5.488778    0.773686    0.245304
 ---------------------------------------------------------------------

 SCF Done:  E(RwB97XD) =  -829.760703904     A.U. after    1 cycles

 The electronic state is 1-A.
 Alpha  occ. eigenvalues --  -19.34278 -14.58577 -14.58543 -14.53468 -10.43436
 Alpha  occ. eigenvalues --  -10.41195 -10.41006 -10.39424 -10.39328 -10.36916
 Alpha  occ. eigenvalues --  -10.36891 -10.36211 -10.36178 -10.35500 -10.35156
 Alpha  occ. eigenvalues --  -10.31365  -4.16507  -2.40207  -2.40030  -2.39225
 Alpha  occ. eigenvalues --   -1.23909  -1.15949  -1.12739  -1.12024  -0.97972
 Alpha  occ. eigenvalues --   -0.96466  -0.90087  -0.88026  -0.87809  -0.87415
 Alpha  occ. eigenvalues --   -0.81899  -0.81028  -0.79982  -0.77277  -0.77153
 Alpha  occ. eigenvalues --   -0.71007  -0.69052  -0.66281  -0.65928  -0.64533
 Alpha  occ. eigenvalues --   -0.64242  -0.63568  -0.63198  -0.62166  -0.59709
 Alpha  occ. eigenvalues --   -0.58702  -0.58029  -0.57220  -0.56819  -0.56174
 Alpha  occ. eigenvalues --   -0.55481  -0.54615  -0.54184  -0.54005  -0.53674
 Alpha  occ. eigenvalues --   -0.53274  -0.52598  -0.52090  -0.51821  -0.51772
 Alpha  occ. eigenvalues --   -0.50964  -0.50772  -0.49658  -0.47036  -0.45866
 Alpha  occ. eigenvalues --   -0.45215  -0.41959  -0.41476  -0.40389  -0.38742
 Alpha virt. eigenvalues --   -0.06695  -0.02182  -0.01721  -0.01558   0.05638
 Alpha virt. eigenvalues --    0.08244   0.08729   0.09459   0.10003   0.10757
 Alpha virt. eigenvalues --    0.11237   0.11361   0.12188   0.12518   0.12990

 Mulliken charges:
               1
     1  Pt   0.727469
     2  C    0.116498
     3  C    0.141166
     4  C   -0.157116
     5  C   -0.173403
     6  C    0.290675
     7  H    0.130029
     8  H    0.142381
     9  O   -0.251608
    10  N   -0.285621
    11  C   -0.053245
    12  H    0.146468
    13  H    0.139962
    14  C   -0.055656
    15  H    0.146646
    16  H    0.140592
    17  N   -0.056974
    18  N   -0.054465
    19  C   -0.514669
    20  H    0.131722
    21  H    0.125961
    22  H    0.128152
    23  C   -0.176415
    24  H    0.119988
    25  H    0.136804
    26  H    0.127211
    27  C   -0.197791
    28  H    0.128215
    29  H    0.140313
    30  H    0.133648
    31  C   -0.177252
    32  H    0.136719
    33  H    0.119596
    34  H    0.128262
    35  C   -0.197865
    36  H    0.138887
    37  H    0.128896
    38  H    0.133663
    39  H    0.046147
    40  H    0.226011
 Sum of Mulliken charges =   2.00000

 Dipole moment (field-independent basis, Debye):
    X=              2.6640    Y=              1.6638    Z=              0.8948  Tot=              3.2658
 Quadrupole moment (field-independent basis, Debye-Ang):
   XX=            -71.6150   YY=            -58.0212   ZZ=           -104.4996
   XY=              9.6085   XZ=             -0.0528   YZ=              0.4633

  Exact polarizability:     309.144       1.239     274.860       1.418       0.164     173.073
 Approx polarizability:     250.903       0.480     235.474       3.412       0.104     174.885

                      1                      2                      3
                      A                      A                      A
 Frequencies --     61.1214                68.2491                94.5739
 Red. masses --      1.5568                 3.1656                 1.8841
 Frc consts  --      0.0034                 0.0087                 0.0099
 IR Inten    --      0.1792                 0.7293                 0.2418

                      4                      5                      6
                      A                      A                      A
 Frequencies --    134.6050               184.5764               192.7220
 Red. masses --      2.9674                 3.4607                 2.1417
 Frc consts  --      0.0317                 0.0695                 0.0469
 IR Inten    --      3.0610                 7.7789                 0.1552

                      7                      8                      9
                      A                      A                      A
 Frequencies --    202.1358               209.1899               215.4601
 Red. masses --      2.9038                 2.8125                 2.9710
 Frc consts  --      0.0699                 0.0725                 0.0813
 IR Inten    --      1.4418                 0.0346                 2.3690

                     10                     11                     12
                      A                      A                      A
 Frequencies --    227.5147               247.4481               259.6668
 Red. masses --      3.0277                 1.5874                 2.8255
 Frc consts  --      0.0923                 0.0573                 0.1122
 IR Inten    --      1.9742                 2.6177                 2.4068

                     13                     14                     15
                      A                      A                      A
 Frequencies --    266.0578               271.8059               281.1393
 Red. masses --      2.4299                 3.3690                 2.4171
 Frc consts  --      0.1013                 0.1466                 0.1126
 IR Inten    --      1.6446                 2.1321                 1.3263

                     16                     17                     18
                      A                      A                      A
 Frequencies --    284.0200               303.4436               321.5386
 Red. masses --      1.4702                 2.0888                 1.4026
 Frc consts  --      0.0699                 0.1133                 0.0854
 IR Inten    --      1.5502                 0.2564                 0.9200

                     19                     20                     21
                      A                      A                      A
 Frequencies --    327.3602               342.0595               351.2204
 Red. masses --      2.0200                 1.7996                 2.7715
 Frc consts  --      0.1275                 0.1241                 0.2014
 IR Inten    --      4.3554                 3.7229                10.2727

                     22                     23                     24
                      A                      A                      A
 Frequencies --    381.7538               396.0870               441.6099
 Red. masses --      2.3210                 2.5020                 1.5568
 Frc consts  --      0.1993                 0.2313                 0.1789
 IR Inten    --      5.8116                 1.0735                86.5842

                     25                     26                     27
                      A                      A                      A
 Frequencies --    463.9214               489.9965               496.2614
 Red. masses --      1.8391                 2.5014                 1.4261
 Frc consts  --      0.2332                 0.3538                 0.2069
 IR Inten    --     54.9093                22.6120                 1.8372

                     28                     29                     30
                      A                      A                      A
 Frequencies --    505.4067               535.1358               538.5492
 Red. masses --      1.8320                 2.8539                 3.2451
 Frc consts  --      0.2757                 0.4815                 0.5545
 IR Inten    --     22.3834                 1.6963                11.2472

                     31                     32                     33
                      A                      A                      A
 Frequencies --    566.8096               604.2487               617.1462
 Red. masses --      2.7739                 5.8774                 3.6844
 Frc consts  --      0.5251                 1.2644                 0.8268
 IR Inten    --     27.4429                18.3743                12.1477

                     34                     35                     36
                      A                      A                      A
 Frequencies --    630.5255               664.5498               693.0306
 Red. masses --      3.9334                 1.0873                 5.1076
 Frc consts  --      0.9213                 0.2829                 1.4453
 IR Inten    --      0.3535                 6.2899                 5.9042

                     37                     38                     39
                      A                      A                      A
 Frequencies --    723.7580               760.3069               848.1172
 Red. masses --      3.6846                 3.0434                 1.2357
 Frc consts  --      1.1372                 1.0365                 0.5237
 IR Inten    --      0.6202                 7.4837                 6.3455

                     40                     41                     42
                      A                      A                      A
 Frequencies --    865.4587               873.1982               885.5382
 Red. masses --      2.5670                 3.1069                 1.2586
 Frc consts  --      1.1328                 1.3958                 0.5815
 IR Inten    --     64.4218                27.9604                 7.5939

                     43                     44                     45
                      A                      A                      A
 Frequencies --    909.4058               920.7502               958.5922
 Red. masses --      1.6740                 1.5726                 2.7543
 Frc consts  --      0.8157                 0.7855                 1.4912
 IR Inten    --     41.3630                29.2204                51.6561

                     46                     47                     48
                      A                      A                      A
 Frequencies --    969.7460               989.6981               998.6881
 Red. masses --      2.8990                 2.3398                 2.4873
 Frc consts  --      1.6063                 1.3503                 1.4617
 IR Inten    --      6.7764                18.9957                39.3604

                     49                     50                     51
                      A                      A                      A
 Frequencies --   1011.0181              1036.1046              1040.2838
 Red. masses --      2.6190                 1.8315                 1.7090
 Frc consts  --      1.5773                 1.1584                 1.0897
 IR Inten    --     21.5503                 7.0297                10.7939

                     52                     53                     54
                      A                      A                      A
 Frequencies --   1054.5320              1099.0351              1131.3826
 Red. masses --      3.0459                 6.1283                 1.2760
 Frc consts  --      1.9957                 4.3612                 0.9623
 IR Inten    --      8.1640               226.5802                 1.8759

                     55                     56                     57
                      A                      A                      A
 Frequencies --   1139.8925              1180.4852              1184.6454
 Red. masses --      1.2791                 1.6696                 1.5300
 Frc consts  --      0.9792                 1.3708                 1.2651
 IR Inten    --      4.4941                25.2369                22.5043

                     58                     59                     60
                      A                      A                      A
 Frequencies --   1191.2380              1209.7051              1223.2583
 Red. masses --      1.5864                 1.3971                 1.6356
 Frc consts  --      1.3264                 1.2045                 1.4420
 IR Inten    --    138.9057                 8.8452                31.5148

                     61                     62                     63
                      A                      A                      A
 Frequencies --   1231.5585              1254.7842              1267.2772
 Red. masses --      1.8573                 1.6829                 1.9148
 Frc consts  --      1.6597                 1.5612                 1.8118
 IR Inten    --      7.6716                36.2780                 2.0103

                     64                     65                     66
                      A                      A                      A
 Frequencies --   1273.5679              1310.5040              1311.6572
 Red. masses --      1.9578                 1.2120                 1.4279
 Frc consts  --      1.8709                 1.2264                 1.4474
 IR Inten    --      1.2667                31.7649                 6.0974

                     67                     68                     69
                      A                      A                      A
 Frequencies --   1315.8218              1357.7317              1386.7274
 Red. masses --      1.3922                 2.4707                 1.5885
 Frc consts  --      1.4202                 2.6835                 1.7997
 IR Inten    --      7.6757                56.3200                43.9253

                     70                     71                     72
                      A                      A                      A
 Frequencies --   1407.7471              1426.0927              1447.6350
 Red. masses --      1.7985                 4.2611                 1.1260
 Frc consts  --      2.1000                 5.1058                 1.3903
 IR Inten    --     88.9275               206.1456                 4.5072

                     73                     74                     75
                      A                      A                      A
 Frequencies --   1451.6920              1457.1161              1471.3476
 Red. masses --      1.1393                 1.0832                 1.1325
 Frc consts  --      1.4146                 1.3550                 1.4445
 IR Inten    --      5.3137                 3.6588                19.8374

                     76                     77                     78
                      A                      A                      A
 Frequencies --   1474.6739              1476.0840              1480.2795
 Red. masses --      1.1113                 1.0901                 1.0865
 Frc consts  --      1.4239                 1.3994                 1.4027
 IR Inten    --     15.7777                 2.3172                 4.4184

                     79                     80                     81
                      A                      A                      A
 Frequencies --   1483.7491              1489.7417              1493.3624
 Red. masses --      1.0718                 1.0616                 1.0817
 Frc consts  --      1.3902                 1.3881                 1.4213
 IR Inten    --      5.2287                 2.9916                 6.9661

                     82                     83                     84
                      A                      A                      A
 Frequencies --   1499.7322              1506.2884              1508.2192
 Red. masses --      1.0638                 1.0526                 1.0522
 Frc consts  --      1.4097                 1.4072                 1.4102
 IR Inten    --     11.0684                20.6150                17.1494

                     85                     86                     87
                      A                      A                      A
 Frequencies --   1512.8517              1514.7957              1516.4947
 Red. masses --      1.0492                 1.0562                 1.1080
 Frc consts  --      1.4149                 1.4279                 1.5013
 IR Inten    --     73.9491                35.9274                18.6029

                     88                     89                     90
                      A                      A                      A
 Frequencies --   1522.0931              1552.6762              1659.6286
 Red. masses --      3.3854                 4.2279                 7.9780
 Frc consts  --      4.6211                 6.0053                12.9469
 IR Inten    --    122.9608                10.2143               166.5842

                     91                     92                     93
                      A                      A                      A
 Frequencies --   1685.6433              2644.8150              3046.5388
 Red. masses --      6.8571                 1.0129                 1.0359
 Frc consts  --     11.4795                 4.1746                 5.6647
 IR Inten    --    504.0443                43.9151                18.8818

                     94                     95                     96
                      A                      A                      A
 Frequencies --   3070.9206              3073.6369              3076.6936
 Red. masses --      1.0332                 1.0327                 1.0371
 Frc consts  --      5.7408                 5.7480                 5.7844
 IR Inten    --      5.8680                 6.6472                20.3821

                     97                     98                     99
                      A                      A                      A
 Frequencies --   3080.2018              3094.1376              3095.2688
 Red. masses --      1.0372                 1.0603                 1.0601
 Frc consts  --      5.7979                 5.9806                 5.9838
 IR Inten    --     17.9616                 3.5893                 3.5005

                    100                    101                    102
                      A                      A                      A
 Frequencies --   3139.2076              3150.3825              3151.8247
 Red. masses --      1.0987                 1.1071                 1.1065
 Frc consts  --      6.3795                 6.4738                 6.4763
 IR Inten    --     24.7804                 5.6880                 5.0592

                    103                    104                    105
                      A                      A                      A
 Frequencies --   3159.5967              3161.8299              3162.1252
 Red. masses --      1.1066                 1.1066                 1.1043
 Frc consts  --      6.5091                 6.5180                 6.5055
 IR Inten    --      7.0962                 7.7603                23.4551

                    106                    107                    108
                      A                      A                      A
 Frequencies --   3169.8094              3172.5239              3183.3929
 Red. masses --      1.1022                 1.1026                 1.1071
 Frc consts  --      6.5251                 6.5383                 6.6101
 IR Inten    --      3.0771                 3.8243                 2.0742

                    109                    110                    111
                      A                      A                      A
 Frequencies --   3184.5075              3200.4805              3204.4301
 Red. masses --      1.1073                 1.1079                 1.1069
 Frc consts  --      6.6159                 6.6863                 6.6970
 IR Inten    --      3.1798                 6.0979                 5.7827

                    112                    113                    114
                      A                      A                      A
 Frequencies --   3231.8859              3247.5164              3862.0460
 Red. masses --      1.0950                 1.0952                 1.0667
 Frc consts  --      6.7390                 6.8050                 9.3737
 IR Inten    --      1.7656                 1.9925               256.1065

 - Thermochemistry -
 -------------------
 Temperature   298.150 Kelvin.  Pressure   1.00000 Atm.
 Atom     1 has atomic number 78 and mass 194.96480

 Molecular mass:   420.14891 amu.
 Principal axes and moments of inertia in atomic units:
                           1         2         3
     Eigenvalues --  3331.518425394.091937928.01686
           X            0.99996   0.00804  -0.00268
           Y           -0.00803   0.99997   0.00020
           Z            0.00268  -0.00018   1.00000
 This molecule is an asymmetric top.
 Rotational symmetry number  1.
 Warning -- assumption of classical behavior for rotation
           may cause significant error
 Rotational temperatures (Kelvin)      0.02600     0.01606     0.01093
 Rotational constants (GHZ):           0.54172     0.33458     0.22764
 Zero-point vibrational energy     923440.1 (Joules/Mol)
                                  220.70748 (Kcal/Mol)
 Warning -- explicit consideration of  33 degrees of freedom as
           vibrations may cause significant error
 Vibrational temperatures:     87.94    98.20   136.07   193.67   265.56
          (Kelvin)            277.28   290.83   300.98   310.00   327.34
                              356.02   373.60   382.80   391.07   404.50
                              408.64   436.59   462.62   471.00   492.15
                              505.33   549.26   569.88   635.38   667.48
                              705.00   714.01   727.17   769.94   774.85
                              815.51   869.38   887.94   907.19   956.14
                              997.12  1041.33  1093.91  1220.25  1245.20
                             1256.34  1274.09  1308.43  1324.75  1379.20
                             1395.25  1423.95  1436.89  1454.63  1490.72
                             1496.74  1517.24  1581.27  1627.81  1640.05
                             1698.45  1704.44  1713.93  1740.50  1760.00
                             1771.94  1805.35  1823.33  1832.38  1885.52
                             1887.18  1893.17  1953.47  1995.19  2025.43
                             2051.83  2082.82  2088.66  2096.47  2116.94
                             2121.73  2123.76  2129.79  2134.78  2143.41
                             2148.62  2157.78  2167.21  2169.99  2176.66
                             2179.45  2181.90  2189.95  2233.95  2387.84
                             2425.26  3805.30  4383.29  4418.37  4422.28
                             4426.68  4431.72  4451.77  4453.40  4516.62
                             4532.70  4534.77  4545.95  4549.17  4549.59
                             4560.65  4564.55  4580.19  4581.80  4604.78
                             4610.46  4649.96  4672.45  5556.62

 Zero-point correction=                           0.351720 (Hartree/Particle)
 Thermal correction to Energy=                    0.369898
 Thermal correction to Enthalpy=                  0.370842
 Thermal correction to Gibbs Free Energy=         0.307588
 Sum of electronic and zero-point Energies=           -829.408984
 Sum of electronic and thermal Energies=              -829.390806
 Sum of electronic and thermal Enthalpies=            -829.389862
 Sum of electronic and thermal Free Energies=         -829.453116

                     E (Thermal)             CV                S
                      KCal/Mol        Cal/Mol-Kelvin    Cal/Mol-Kelvin
 Total                  232.114             73.311            133.129
 Electronic               0.000              0.000              0.000
 Translational            0.889              2.981             43.997
 Rotational               0.889              2.981             33.321
 Vibrational            230.337             67.349             55.812
 Vibration     1          0.597              1.973              4.421
 Vibration     2          0.598              1.969              4.203
 Vibration     3          0.603              1.953              3.563
 Vibration     4          0.613              1.919              2.879
 Vibration     5          0.631              1.861              2.282
 Vibration     6          0.635              1.850              2.201
 Vibration     7          0.639              1.837              2.114
 Vibration     8          0.642              1.827              2.051
 Vibration     9          0.645              1.817              1.997
 Vibration    10          0.651              1.799              1.898
 Vibration    11          0.661              1.767              1.749
 Vibration    12          0.668              1.746              1.664
 Vibration    13          0.672              1.735              1.622
 Vibration    14          0.675              1.725              1.585
 Vibration    15          0.681              1.709              1.527
 Vibration    16          0.682              1.703              1.509
 Vibration    17          0.695              1.667              1.398
 Vibration    18          0.707              1.632              1.302
 Vibration    19          0.711              1.621              1.273
 Vibration    20          0.721              1.591              1.203
 Vibration    21          0.728              1.573              1.161
 Vibration    22          0.751              1.509              1.032
 Vibration    23          0.763              1.479              0.977
 Vibration    24          0.801              1.379              0.822
 Vibration    25          0.821              1.330              0.755
 Vibration    26          0.846              1.272              0.684
 Vibration    27          0.852              1.258              0.668
 Vibration    28          0.861              1.238              0.645
 Vibration    29          0.890              1.172              0.576
 Vibration    30          0.894              1.165              0.568
 Vibration    31          0.923              1.103              0.510
 Vibration    32          0.963              1.023              0.442
 Vibration    33          0.977              0.996              0.421

 Optimization completed.
    -- Stationary point found.
 Normal termination of Gaussian 16 at Fri Mar 29 18:05:47 2024.
