 Gaussian 16, Revision C.01,
 Gaussian 16:  ES64L-G16RevC.01  3-Jul-2019

 ----------------------------------------------------------
 # wb97xd def2TZVPP SCRF=(solvent=dichloromethane) opt freq
 ----------------------------------------------------------

 ----
 HZPt
 ----
 Symbolic Z-matrix:
 Charge =  2 Multiplicity = 1

 SCF Done:  E(RwB97XD) =  -789.207400511     A.U. after   20 cycles
 SCF Done:  E(RwB97XD) =  -789.241306723     A.U. after   14 cycles
 SCF Done:  E(RwB97XD) =  -789.256022918     A.U. after   14 cycles
 SCF Done:  E(RwB97XD) =  -789.259204452     A.U. after   14 cycles
 SCF Done:  E(RwB97XD) =  -789.262004724     A.U. after   15 cycles
 SCF Done:  E(RwB97XD) =  -789.263642672     A.U. after   12 cycles
 SCF Done:  E(RwB97XD) =  -789.264032810     A.U. after   12 cycles
 SCF Done:  E(RwB97XD) =  -789.263635760     A.U. after   12 cycles
 SCF Done:  E(RwB97XD) =  -789.264241397     A.U. after   12 cycles
 SCF Done:  E(RwB97XD) =  -789.264290949     A.U. after   11 cycles
 SCF Done:  E(RwB97XD) =  -789.264334590     A.U. after   12 cycles
 SCF Done:  E(RwB97XD) =  -789.264340233     A.U. after   11 cycles
 SCF Done:  E(RwB97XD) =  -789.264344782     A.U. after   11 cycles
 SCF Done:  E(RwB97XD) =  -789.264342470     A.U. after   10 cycles
 SCF Done:  E(RwB97XD) =  -789.264342749     A.U. after    9 cycles
 SCF Done:  E(RwB97XD) =  -789.264344667     A.U. after   10 cycles
 SCF Done:  E(RwB97XD) =  -789.264342717     A.U. after   10 cycles
 Optimization completed.
    -- Stationary point found.
 Normal termination of Gaussian 16 at Fri Mar 29 02:17:32 2024.

 ----------------------------------------------------------------------
 #N Geom=AllCheck Guess=TCheck SCRF=Check GenChk RwB97XD/def2TZVPP Freq
 ----------------------------------------------------------------------

 Structure from the checkpoint file:  "HZPt.chk"
 ----
 HZPt
 ----
 Charge =  2 Multiplicity = 1

                         Standard orientation:
 ---------------------------------------------------------------------
 Center     Atomic      Atomic             Coordinates (Angstroms)
 Number     Number       Type             X           Y           Z
 ---------------------------------------------------------------------
      1         78           0        1.031654    0.006828   -0.038339
      2          6           0       -1.501683   -1.191496   -0.132690
      3          6           0       -1.518230    1.165899   -0.125716
      4          6           0       -2.866515   -1.234451   -0.044824
      5          6           0       -2.886573    1.188718   -0.038705
      6          6           0       -3.572986   -0.028461    0.019621
      7          1           0       -3.396178   -2.174615   -0.045195
      8          1           0       -3.415397    2.130645   -0.036238
      9          8           0       -4.893317   -0.108215    0.109572
     10          7           0       -0.870576   -0.006497   -0.129013
     11          6           0       -0.594198   -2.357169   -0.391376
     12          1           0       -0.584202   -2.513241   -1.470229
     13          1           0       -0.956244   -3.272380    0.074620
     14          6           0       -0.630541    2.348892   -0.375319
     15          1           0       -0.634745    2.521278   -1.451671
     16          1           0       -1.001156    3.251695    0.108039
     17          7           0        0.811359   -2.073832    0.044199
     18          7           0        0.784225    2.081071    0.041907
     19          6           0        1.755103   -2.802143   -0.833581
     20          1           0        2.768238   -2.634724   -0.476732
     21          1           0        1.539872   -3.871558   -0.808360
     22          1           0        1.659951   -2.433093   -1.851467
     23          6           0        0.980165   -2.531240    1.444191
     24          1           0        0.843125   -3.612496    1.493004
     25          1           0        1.979522   -2.282783    1.789757
     26          1           0        0.246237   -2.043898    2.080886
     27          6           0        1.707175    2.824744   -0.845576
     28          1           0        1.481044    3.891543   -0.809382
     29          1           0        2.727150    2.664951   -0.504724
     30          1           0        1.600243    2.461339   -1.864180
     31          6           0        0.964780    2.537931    1.441041
     32          1           0        1.971431    2.301477    1.773540
     33          1           0        0.814494    3.617078    1.494514
     34          1           0        0.245611    2.039773    2.086147
     35          1           0       -5.305533    0.759598    0.129508
 ---------------------------------------------------------------------

 SCF Done:  E(RwB97XD) =  -789.264342717     A.U. after    1 cycles

 The electronic state is 1-A.
 Alpha  occ. eigenvalues --  -19.34297 -14.56937 -14.56737 -14.56661 -10.43398
 Alpha  occ. eigenvalues --  -10.41433 -10.41246 -10.38881 -10.38775 -10.35749
 Alpha  occ. eigenvalues --  -10.35740 -10.35708 -10.35692 -10.35523 -10.35171
 Alpha  occ. eigenvalues --   -4.09946  -2.34875  -2.34606  -2.30866  -1.23929
 Alpha  occ. eigenvalues --   -1.16632  -1.11921  -1.11395  -0.98142  -0.96976
 Alpha  occ. eigenvalues --   -0.89905  -0.87305  -0.87023  -0.86954  -0.81016
 Alpha  occ. eigenvalues --   -0.79950  -0.76949  -0.76517  -0.70849  -0.69177
 Alpha  occ. eigenvalues --   -0.66142  -0.65749  -0.64035  -0.63721  -0.62753
 Alpha  occ. eigenvalues --   -0.62402  -0.61727  -0.59817  -0.58053  -0.56809
 Alpha  occ. eigenvalues --   -0.55963  -0.55889  -0.54842  -0.54291  -0.53763
 Alpha  occ. eigenvalues --   -0.52900  -0.52296  -0.51441  -0.51168  -0.51028
 Alpha  occ. eigenvalues --   -0.50877  -0.50110  -0.49532  -0.44609  -0.43110
 Alpha  occ. eigenvalues --   -0.41254  -0.40361  -0.39594  -0.37114  -0.36708
 Alpha virt. eigenvalues --   -0.04764  -0.02684  -0.01504   0.02733   0.05641
 Alpha virt. eigenvalues --    0.07637   0.08488   0.09452   0.11004   0.11215
 Alpha virt. eigenvalues --    0.11921   0.12194   0.12435   0.12781   0.13562

 Mulliken charges:
               1
     1  Pt   0.643283
     2  C    0.122314
     3  C    0.096526
     4  C   -0.178967
     5  C   -0.163488
     6  C    0.288027
     7  H    0.141605
     8  H    0.129399
     9  O   -0.251714
    10  N   -0.155628
    11  C   -0.061710
    12  H    0.140903
    13  H    0.136530
    14  C   -0.062143
    15  H    0.141148
    16  H    0.136507
    17  N   -0.062839
    18  N   -0.061638
    19  C   -0.168883
    20  H    0.119310
    21  H    0.132134
    22  H    0.120132
    23  C   -0.185026
    24  H    0.122481
    25  H    0.124232
    26  H    0.133220
    27  C   -0.168753
    28  H    0.132112
    29  H    0.119378
    30  H    0.120463
    31  C   -0.186107
    32  H    0.124756
    33  H    0.122328
    34  H    0.133601
    35  H    0.226508
 Sum of Mulliken charges =   2.00000

 Dipole moment (field-independent basis, Debye):
    X=              0.3095    Y=              1.6966    Z=             -0.0935  Tot=              1.7271
 Quadrupole moment (field-independent basis, Debye-Ang):
   XX=            -58.3577   YY=            -54.3379   ZZ=           -100.8886
   XY=             -9.2913   XZ=              0.8358   YZ=              0.2598

  Exact polarizability:     266.456      -1.258     255.996      -3.591       0.125     164.237
 Approx polarizability:     220.984      -0.481     214.903      -3.247       0.083     156.186

                      1                      2                      3
                      A                      A                      A
 Frequencies --     65.5643                81.1922                99.9185
 Red. masses --      3.0035                 3.8260                 4.1125
 Frc consts  --      0.0076                 0.0149                 0.0242
 IR Inten    --      1.1587                 0.2737                 2.3650

                      4                      5                      6
                      A                      A                      A
 Frequencies --    172.7056               203.0715               203.9427
 Red. masses --      3.5307                 2.9853                 3.5278
 Frc consts  --      0.0620                 0.0725                 0.0865
 IR Inten    --      6.6939                 3.3996                 2.4695

                      7                      8                      9
                      A                      A                      A
 Frequencies --    214.0084               245.8324               257.9009
 Red. masses --      3.0335                 3.1726                 3.7281
 Frc consts  --      0.0819                 0.1130                 0.1461
 IR Inten    --      0.2995                 3.4184                 1.0797

                     10                     11                     12
                      A                      A                      A
 Frequencies --    266.0256               269.8497               280.1989
 Red. masses --      3.1743                 1.4958                 1.5219
 Frc consts  --      0.1324                 0.0642                 0.0704
 IR Inten    --      5.2657                 3.6037                 0.5919

                     13                     14                     15
                      A                      A                      A
 Frequencies --    285.9954               291.1663               306.3092
 Red. masses --      3.6615                 1.8095                 2.5146
 Frc consts  --      0.1765                 0.0904                 0.1390
 IR Inten    --      3.7804                 2.4971                 3.2531

                     16                     17                     18
                      A                      A                      A
 Frequencies --    324.0167               332.3515               356.5317
 Red. masses --      1.3100                 1.1558                 3.2047
 Frc consts  --      0.0810                 0.0752                 0.2400
 IR Inten    --      0.7841                 0.1721                 0.5234

                     19                     20                     21
                      A                      A                      A
 Frequencies --    411.0392               428.6540               460.3690
 Red. masses --      2.3029                 2.2380                 2.7696
 Frc consts  --      0.2292                 0.2423                 0.3458
 IR Inten    --      3.4031                 0.1199                 4.4103

                     22                     23                     24
                      A                      A                      A
 Frequencies --    484.2583               505.1273               513.1500
 Red. masses --      2.6675                 3.1346                 1.1629
 Frc consts  --      0.3686                 0.4712                 0.1804
 IR Inten    --     22.4938                 8.7877               142.8429

                     25                     26                     27
                      A                      A                      A
 Frequencies --    539.2541               563.5244               590.7746
 Red. masses --      3.5608                 3.2709                 2.7647
 Frc consts  --      0.6101                 0.6120                 0.5685
 IR Inten    --      0.7733                 2.9756                25.1676

                     28                     29                     30
                      A                      A                      A
 Frequencies --    623.5063               630.6541               695.3303
 Red. masses --      4.6832                 4.9057                 5.6223
 Frc consts  --      1.0727                 1.1496                 1.6016
 IR Inten    --      6.1384                 5.4657                 2.2231

                     31                     32                     33
                      A                      A                      A
 Frequencies --    722.5783               747.3923               884.5409
 Red. masses --      3.5934                 3.2225                 2.1786
 Frc consts  --      1.1054                 1.0606                 1.0043
 IR Inten    --      1.3775                 2.7828                50.5817

                     34                     35                     36
                      A                      A                      A
 Frequencies --    893.6169               917.8925               923.8840
 Red. masses --      2.4999                 1.7734                 1.9325
 Frc consts  --      1.1762                 0.8803                 0.9719
 IR Inten    --     14.5897                50.1666                45.2918

                     37                     38                     39
                      A                      A                      A
 Frequencies --    980.6780               993.3267              1005.0531
 Red. masses --      2.6072                 2.3907                 2.6696
 Frc consts  --      1.4773                 1.3898                 1.5888
 IR Inten    --     23.9020                21.9611                 1.1514

                     40                     41                     42
                      A                      A                      A
 Frequencies --   1008.9451              1028.8315              1046.1254
 Red. masses --      2.5140                 2.5572                 1.8405
 Frc consts  --      1.5078                 1.5948                 1.1867
 IR Inten    --     41.1162                37.5312                 3.9072

                     43                     44                     45
                      A                      A                      A
 Frequencies --   1050.0177              1061.8011              1128.4059
 Red. masses --      1.6379                 2.9964                 6.7239
 Frc consts  --      1.0640                 1.9904                 5.0443
 IR Inten    --     11.0383                12.3181                24.0597

                     46                     47                     48
                      A                      A                      A
 Frequencies --   1145.8771              1151.4141              1186.7166
 Red. masses --      1.2758                 1.2679                 1.6510
 Frc consts  --      0.9870                 0.9903                 1.3699
 IR Inten    --      0.9200                 3.8653                57.5468

                     49                     50                     51
                      A                      A                      A
 Frequencies --   1190.8511              1197.2520              1215.4213
 Red. masses --      1.5223                 1.5871                 1.4013
 Frc consts  --      1.2719                 1.3404                 1.2197
 IR Inten    --     79.4027               110.9783                 4.4724

                     52                     53                     54
                      A                      A                      A
 Frequencies --   1231.4421              1240.7582              1257.9133
 Red. masses --      1.6023                 1.8087                 1.6943
 Frc consts  --      1.4316                 1.6405                 1.5796
 IR Inten    --     33.1047                 4.4786                36.7919

                     55                     56                     57
                      A                      A                      A
 Frequencies --   1281.0516              1287.9190              1330.6750
 Red. masses --      2.0009                 2.0881                 1.4434
 Frc consts  --      1.9347                 2.0407                 1.5058
 IR Inten    --      5.2373                 0.9919                 9.0122

                     58                     59                     60
                      A                      A                      A
 Frequencies --   1334.6859              1349.0045              1394.7806
 Red. masses --      1.3962                 3.2202                 1.6815
 Frc consts  --      1.4654                 3.4527                 1.9274
 IR Inten    --     12.6561                68.5657                56.5415

                     61                     62                     63
                      A                      A                      A
 Frequencies --   1411.8834              1428.4325              1461.4265
 Red. masses --      1.5283                 4.0986                 1.1398
 Frc consts  --      1.7950                 4.9273                 1.4343
 IR Inten    --     58.0206               106.3344                 2.8462

                     64                     65                     66
                      A                      A                      A
 Frequencies --   1461.7240              1478.3026              1479.1757
 Red. masses --      1.1396                 1.1169                 1.1279
 Frc consts  --      1.4346                 1.4381                 1.4540
 IR Inten    --     12.9248                11.5215                19.4885

                     67                     68                     69
                      A                      A                      A
 Frequencies --   1485.7349              1486.3890              1489.6807
 Red. masses --      1.0592                 1.0528                 1.1096
 Frc consts  --      1.3775                 1.3704                 1.4508
 IR Inten    --      7.9676                 3.9166                 7.4070

                     70                     71                     72
                      A                      A                      A
 Frequencies --   1493.5253              1501.2713              1506.5621
 Red. masses --      1.1072                 1.0499                 1.0517
 Frc consts  --      1.4551                 1.3941                 1.4065
 IR Inten    --     10.3107                34.3573                29.5096

                     73                     74                     75
                      A                      A                      A
 Frequencies --   1511.7700              1514.0237              1523.6823
 Red. masses --      1.0608                 1.0595                 2.1793
 Frc consts  --      1.4284                 1.4310                 2.9810
 IR Inten    --     24.3223                28.0342               131.8085

                     76                     77                     78
                      A                      A                      A
 Frequencies --   1526.1294              1529.9755              1558.9656
 Red. masses --      1.1041                 1.2955                 4.1290
 Frc consts  --      1.5151                 1.7867                 5.9125
 IR Inten    --     18.1377               148.1529                10.6345

                     79                     80                     81
                      A                      A                      A
 Frequencies --   1652.1898              1697.1688              3064.2451
 Red. masses --      7.5886                 7.0110                 1.0361
 Frc consts  --     12.2048                11.8981                 5.7320
 IR Inten    --    153.1116               413.8261                19.2622

                     82                     83                     84
                      A                      A                      A
 Frequencies --   3066.2572              3070.2470              3072.9252
 Red. masses --      1.0360                 1.0384                 1.0378
 Frc consts  --      5.7388                 5.7669                 5.7738
 IR Inten    --     20.5294                25.4818                22.1872

                     85                     86                     87
                      A                      A                      A
 Frequencies --   3092.5628              3096.1347              3148.1025
 Red. masses --      1.0610                 1.0609                 1.1061
 Frc consts  --      5.9788                 5.9918                 6.4586
 IR Inten    --      3.4155                 3.4299                 4.5879

                     88                     89                     90
                      A                      A                      A
 Frequencies --   3151.2864              3154.3431              3156.6518
 Red. masses --      1.1050                 1.1016                 1.1017
 Frc consts  --      6.4652                 6.4580                 6.4677
 IR Inten    --      7.3334                 7.9709                 6.0055

                     91                     92                     93
                      A                      A                      A
 Frequencies --   3158.8493              3160.2686              3182.5735
 Red. masses --      1.1018                 1.1027                 1.1073
 Frc consts  --      6.4774                 6.4884                 6.6080
 IR Inten    --      9.2618                 9.4722                 6.7137

                     94                     95                     96
                      A                      A                      A
 Frequencies --   3184.7002              3203.4066              3205.0593
 Red. masses --      1.1073                 1.1037                 1.1034
 Frc consts  --      6.6169                 6.6729                 6.6781
 IR Inten    --      6.2803                 7.4070                 8.1010

                     97                     98                     99
                      A                      A                      A
 Frequencies --   3236.7727              3251.5279              3864.7724
 Red. masses --      1.0944                 1.0946                 1.0666
 Frc consts  --      6.7555                 6.8186                 9.3864
 IR Inten    --      1.7055                 2.6346               264.2116

 - Thermochemistry -
 -------------------
 Temperature   298.150 Kelvin.  Pressure   1.00000 Atm.
 Atom     1 has atomic number 78 and mass 194.96480

 Molecular mass:   404.11761 amu.
 Principal axes and moments of inertia in atomic units:
                           1         2         3
     Eigenvalues --  3274.800584710.040477239.73806
           X            0.99993  -0.01213   0.00159
           Y            0.01213   0.99993   0.00012
           Z           -0.00160  -0.00010   1.00000
 This molecule is an asymmetric top.
 Rotational symmetry number  1.
 Warning -- assumption of classical behavior for rotation
           may cause significant error
 Rotational temperatures (Kelvin)      0.02645     0.01839     0.01196
 Rotational constants (GHZ):           0.55110     0.38317     0.24928
 Zero-point vibrational energy     805145.3 (Joules/Mol)
                                  192.43433 (Kcal/Mol)
 Warning -- explicit consideration of  27 degrees of freedom as
           vibrations may cause significant error
 Vibrational temperatures:     94.33   116.82   143.76   248.48   292.17
          (Kelvin)            293.43   307.91   353.70   371.06   382.75
                              388.25   403.14   411.48   418.92   440.71
                              466.19   478.18   512.97   591.39   616.74
                              662.37   696.74   726.77   738.31   775.87
                              810.79   849.99   897.09   907.37  1000.43
                             1039.63  1075.33  1272.66  1285.72  1320.64
                             1329.26  1410.98  1429.18  1446.05  1451.65
                             1480.26  1505.14  1510.74  1527.69  1623.52
                             1648.66  1656.63  1707.42  1713.37  1722.58
                             1748.72  1771.77  1785.17  1809.86  1843.15
                             1853.03  1914.54  1920.32  1940.92  2006.78
                             2031.39  2055.20  2102.67  2103.09  2126.95
                             2128.20  2137.64  2138.58  2143.32  2148.85
                             2159.99  2167.61  2175.10  2178.34  2192.24
                             2195.76  2201.29  2243.00  2377.13  2441.85
                             4408.77  4411.66  4417.40  4421.25  4449.51
                             4454.65  4529.42  4534.00  4538.40  4541.72
                             4544.88  4546.92  4579.01  4582.07  4608.99
                             4611.37  4656.99  4678.22  5560.55

 Zero-point correction=                           0.306664 (Hartree/Particle)
 Thermal correction to Energy=                    0.322275
 Thermal correction to Enthalpy=                  0.323219
 Thermal correction to Gibbs Free Energy=         0.264701
 Sum of electronic and zero-point Energies=           -788.957679
 Sum of electronic and thermal Energies=              -788.942068
 Sum of electronic and thermal Enthalpies=            -788.941124
 Sum of electronic and thermal Free Energies=         -788.999642

                     E (Thermal)             CV                S
                      KCal/Mol        Cal/Mol-Kelvin    Cal/Mol-Kelvin
 Total                  202.230             62.536            123.162
 Electronic               0.000              0.000              0.000
 Translational            0.889              2.981             43.881
 Rotational               0.889              2.981             33.079
 Vibrational            200.453             56.574             46.202
 Vibration     1          0.597              1.971              4.282
 Vibration     2          0.600              1.962              3.862
 Vibration     3          0.604              1.949              3.456
 Vibration     4          0.626              1.876              2.406
 Vibration     5          0.639              1.836              2.105
 Vibration     6          0.640              1.834              2.097
 Vibration     7          0.644              1.820              2.009
 Vibration     8          0.660              1.770              1.760
 Vibration     9          0.667              1.749              1.676
 Vibration    10          0.672              1.735              1.622
 Vibration    11          0.674              1.729              1.597
 Vibration    12          0.680              1.710              1.532
 Vibration    13          0.684              1.700              1.498
 Vibration    14          0.687              1.690              1.467
 Vibration    15          0.697              1.662              1.382
 Vibration    16          0.709              1.627              1.290
 Vibration    17          0.714              1.611              1.249
 Vibration    18          0.732              1.562              1.137
 Vibration    19          0.775              1.446              0.923
 Vibration    20          0.790              1.408              0.863
 Vibration    21          0.818              1.338              0.765
 Vibration    22          0.840              1.285              0.699
 Vibration    23          0.860              1.239              0.645
 Vibration    24          0.868              1.221              0.626
 Vibration    25          0.894              1.163              0.567
 Vibration    26          0.919              1.110              0.517
 Vibration    27          0.948              1.051              0.466

 Optimization completed.
    -- Stationary point found.
 Normal termination of Gaussian 16 at Fri Mar 29 08:40:38 2024.
