 Gaussian 16, Revision C.01,
 Gaussian 16:  ES64L-G16RevC.01  3-Jul-2019

 ----------------------------------------------------------
 # wb97xd def2TZVPP SCRF=(solvent=dichloromethane) opt freq
 ----------------------------------------------------------

 -------------
 HZPtMeH_sigma
 -------------
 Symbolic Z-matrix:
 Charge =  2 Multiplicity = 1

 SCF Done:  E(RwB97XD) =  -829.738207396     A.U. after   17 cycles
 SCF Done:  E(RwB97XD) =  -829.771903456     A.U. after   14 cycles
 SCF Done:  E(RwB97XD) =  -829.785693078     A.U. after   14 cycles
 SCF Done:  E(RwB97XD) =  -829.787052050     A.U. after   13 cycles
 SCF Done:  E(RwB97XD) =  -829.789048200     A.U. after   13 cycles
 SCF Done:  E(RwB97XD) =  -829.789711470     A.U. after   13 cycles
 SCF Done:  E(RwB97XD) =  -829.789441491     A.U. after   13 cycles
 SCF Done:  E(RwB97XD) =  -829.791679149     A.U. after   12 cycles
 SCF Done:  E(RwB97XD) =  -829.792020551     A.U. after   12 cycles
 SCF Done:  E(RwB97XD) =  -829.791848548     A.U. after   12 cycles
 SCF Done:  E(RwB97XD) =  -829.792346329     A.U. after   11 cycles
 SCF Done:  E(RwB97XD) =  -829.792362302     A.U. after   11 cycles
 SCF Done:  E(RwB97XD) =  -829.792360462     A.U. after   10 cycles
 SCF Done:  E(RwB97XD) =  -829.792361950     A.U. after   10 cycles
 SCF Done:  E(RwB97XD) =  -829.792363929     A.U. after    8 cycles
 SCF Done:  E(RwB97XD) =  -829.792362802     A.U. after    9 cycles
 SCF Done:  E(RwB97XD) =  -829.792362773     A.U. after    7 cycles
 SCF Done:  E(RwB97XD) =  -829.792363970     A.U. after    9 cycles
 SCF Done:  E(RwB97XD) =  -829.792362646     A.U. after    9 cycles
 Optimization completed.
    -- Stationary point found.
 Normal termination of Gaussian 16 at Fri Mar 29 05:56:28 2024.

 ----------------------------------------------------------------------
 #N Geom=AllCheck Guess=TCheck SCRF=Check GenChk RwB97XD/def2TZVPP Freq
 ----------------------------------------------------------------------

 Structure from the checkpoint file:  "HZPtMeH_sigma.chk"
 -------------
 HZPtMeH_sigma
 -------------
 Charge =  2 Multiplicity = 1

                         Standard orientation:
 ---------------------------------------------------------------------
 Center     Atomic      Atomic             Coordinates (Angstroms)
 Number     Number       Type             X           Y           Z
 ---------------------------------------------------------------------
      1         78           0        0.883276    0.003437   -0.099321
      2          6           0       -1.687618   -1.187511   -0.122397
      3          6           0       -1.698736    1.166004   -0.121505
      4          6           0       -3.050117   -1.230118   -0.004245
      5          6           0       -3.064542    1.194988   -0.004663
      6          6           0       -3.752219   -0.021412    0.067101
      7          1           0       -3.582374   -2.168632    0.014023
      8          1           0       -3.591873    2.137570    0.012058
      9          8           0       -5.070311   -0.097391    0.181402
     10          7           0       -1.053404   -0.006013   -0.143844
     11          6           0       -0.786419   -2.356320   -0.385584
     12          1           0       -0.787586   -2.520535   -1.463260
     13          1           0       -1.142197   -3.268386    0.091444
     14          6           0       -0.811437    2.346619   -0.380296
     15          1           0       -0.818483    2.517049   -1.457007
     16          1           0       -1.176268    3.251828    0.103068
     17          7           0        0.628260   -2.079321    0.031182
     18          7           0        0.607787    2.083455    0.030538
     19          6           0        3.275285    0.015070    0.305684
     20          1           0        2.802384    0.008654    1.288561
     21          1           0        3.884668   -0.877201    0.204003
     22          1           0        3.874628    0.914900    0.210755
     23          6           0        1.539297   -2.881209   -0.818434
     24          1           0        2.556854   -2.768390   -0.456478
     25          1           0        1.260873   -3.934453   -0.768176
     26          1           0        1.475414   -2.532320   -1.845580
     27          6           0        0.796369   -2.482915    1.452869
     28          1           0        0.627823   -3.556245    1.546365
     29          1           0        1.805617   -2.251343    1.780369
     30          1           0        0.081138   -1.949254    2.073556
     31          6           0        1.508350    2.891610   -0.824464
     32          1           0        1.222784    3.942885   -0.773183
     33          1           0        2.528530    2.786213   -0.467702
     34          1           0        1.441562    2.541745   -1.851103
     35          6           0        0.779392    2.491497    1.450445
     36          1           0        1.793055    2.271784    1.772325
     37          1           0        0.599569    3.563098    1.542935
     38          1           0        0.074074    1.950743    2.076241
     39          1           0        2.653091    0.015235   -0.652288
     40          1           0       -5.480480    0.771464    0.202660
 ---------------------------------------------------------------------

 SCF Done:  E(RwB97XD) =  -829.792362646     A.U. after    1 cycles

 The electronic state is 1-A.
 Alpha  occ. eigenvalues --  -19.34374 -14.57306 -14.57263 -14.56052 -10.43494
 Alpha  occ. eigenvalues --  -10.41434 -10.41249 -10.39031 -10.38929 -10.36066
 Alpha  occ. eigenvalues --  -10.36030 -10.35941 -10.35906 -10.35540 -10.35282
 Alpha  occ. eigenvalues --  -10.35186  -4.11259  -2.36234  -2.35862  -2.32275
 Alpha  occ. eigenvalues --   -1.24017  -1.16504  -1.12214  -1.11608  -0.98157
 Alpha  occ. eigenvalues --   -0.96958  -0.90127  -0.88177  -0.87445  -0.87252
 Alpha  occ. eigenvalues --   -0.87212  -0.81098  -0.79992  -0.77109  -0.76763
 Alpha  occ. eigenvalues --   -0.70951  -0.69335  -0.66399  -0.65953  -0.64172
 Alpha  occ. eigenvalues --   -0.64064  -0.63041  -0.62625  -0.62015  -0.60406
 Alpha  occ. eigenvalues --   -0.59439  -0.58115  -0.57217  -0.56897  -0.56380
 Alpha  occ. eigenvalues --   -0.55746  -0.55456  -0.54474  -0.54366  -0.53020
 Alpha  occ. eigenvalues --   -0.52851  -0.52551  -0.51561  -0.51260  -0.50945
 Alpha  occ. eigenvalues --   -0.50653  -0.50540  -0.49563  -0.45513  -0.43381
 Alpha  occ. eigenvalues --   -0.42268  -0.40992  -0.40151  -0.38533  -0.37484
 Alpha virt. eigenvalues --   -0.03677  -0.02525  -0.01542   0.04032   0.05583
 Alpha virt. eigenvalues --    0.08201   0.08475   0.09449   0.10125   0.10404
 Alpha virt. eigenvalues --    0.11418   0.11446   0.12037   0.12579   0.13113

 Mulliken charges:
               1
     1  Pt   0.433603
     2  C    0.128329
     3  C    0.103768
     4  C   -0.178068
     5  C   -0.161464
     6  C    0.286727
     7  H    0.141348
     8  H    0.129239
     9  O   -0.250322
    10  N   -0.167753
    11  C   -0.046128
    12  H    0.142613
    13  H    0.138650
    14  C   -0.047879
    15  H    0.143085
    16  H    0.138326
    17  N   -0.082145
    18  N   -0.082603
    19  C   -0.302415
    20  H    0.149549
    21  H    0.139814
    22  H    0.139588
    23  C   -0.174528
    24  H    0.113657
    25  H    0.134960
    26  H    0.129288
    27  C   -0.190725
    28  H    0.125827
    29  H    0.124758
    30  H    0.137830
    31  C   -0.174831
    32  H    0.134864
    33  H    0.113874
    34  H    0.129398
    35  C   -0.190423
    36  H    0.124839
    37  H    0.125613
    38  H    0.137731
    39  H    0.075246
    40  H    0.226758
 Sum of Mulliken charges =   2.00000

 Dipole moment (field-independent basis, Debye):
    X=             -0.1706    Y=              1.6760    Z=              0.3367  Tot=              1.7180
 Quadrupole moment (field-independent basis, Debye-Ang):
   XX=            -57.3745   YY=            -60.5243   ZZ=           -107.6925
   XY=             -9.5571   XZ=              1.2711   YZ=              0.3625

  Exact polarizability:     300.084      -1.225     268.946      -3.276       0.046     173.869
 Approx polarizability:     245.063      -0.472     229.597      -3.607      -0.015     170.894

                      1                      2                      3
                      A                      A                      A
 Frequencies --     85.0207                86.1754               104.6693
 Red. masses --      3.6427                 3.0456                 3.8923
 Frc consts  --      0.0155                 0.0133                 0.0251
 IR Inten    --      2.8841                 0.1917                 1.8607

                      4                      5                      6
                      A                      A                      A
 Frequencies --    171.9086               174.2077               188.5722
 Red. masses --      2.8795                 2.8870                 3.8850
 Frc consts  --      0.0501                 0.0516                 0.0814
 IR Inten    --      5.4394                 2.3633                 1.9280

                      7                      8                      9
                      A                      A                      A
 Frequencies --    208.5011               212.3291               231.2491
 Red. masses --      2.5075                 3.6222                 2.8835
 Frc consts  --      0.0642                 0.0962                 0.0909
 IR Inten    --      2.9409                 0.3888                 0.5710

                     10                     11                     12
                      A                      A                      A
 Frequencies --    247.8608               263.4335               274.4941
 Red. masses --      2.1193                 2.2951                 2.8852
 Frc consts  --      0.0767                 0.0938                 0.1281
 IR Inten    --      1.2513                 1.6575                 0.6506

                     13                     14                     15
                      A                      A                      A
 Frequencies --    278.1993               285.0974               285.3856
 Red. masses --      2.0185                 1.6706                 1.4469
 Frc consts  --      0.0920                 0.0800                 0.0694
 IR Inten    --      2.5250                 3.1137                 0.1595

                     16                     17                     18
                      A                      A                      A
 Frequencies --    288.0366               302.7914               304.9199
 Red. masses --      2.2860                 3.9666                 1.3895
 Frc consts  --      0.1117                 0.2143                 0.0761
 IR Inten    --      3.0290                 4.5855                 0.5189

                     19                     20                     21
                      A                      A                      A
 Frequencies --    313.3736               324.3620               354.1515
 Red. masses --      3.2169                 1.4745                 1.2029
 Frc consts  --      0.1861                 0.0914                 0.0889
 IR Inten    --      1.7649                 1.8580                 0.5054

                     22                     23                     24
                      A                      A                      A
 Frequencies --    356.2714               405.5212               413.5969
 Red. masses --      3.9006                 1.2152                 2.1387
 Frc consts  --      0.2917                 0.1177                 0.2156
 IR Inten    --      2.7739                18.7761                 4.1804

                     25                     26                     27
                      A                      A                      A
 Frequencies --    429.7952               462.1609               483.9910
 Red. masses --      2.1923                 2.4535                 1.7403
 Frc consts  --      0.2386                 0.3088                 0.2402
 IR Inten    --      0.1621                14.8606                60.2205

                     28                     29                     30
                      A                      A                      A
 Frequencies --    500.5039               507.1903               541.7256
 Red. masses --      1.5865                 3.1806                 3.4896
 Frc consts  --      0.2342                 0.4821                 0.6034
 IR Inten    --     86.8182                 7.8874                 1.6800

                     31                     32                     33
                      A                      A                      A
 Frequencies --    549.6533               580.6018               619.3319
 Red. masses --      3.0566                 2.7612                 2.9057
 Frc consts  --      0.5441                 0.5484                 0.6567
 IR Inten    --      1.3681                27.5675                 0.4973

                     34                     35                     36
                      A                      A                      A
 Frequencies --    632.0177               643.2528               696.0851
 Red. masses --      3.6324                 1.3982                 5.6266
 Frc consts  --      0.8549                 0.3409                 1.6063
 IR Inten    --      1.3915                 7.8476                 4.1868

                     37                     38                     39
                      A                      A                      A
 Frequencies --    724.5539               754.9691               882.0005
 Red. masses --      3.8134                 3.1756                 2.4086
 Frc consts  --      1.1795                 1.0664                 1.1039
 IR Inten    --      0.4956                 4.1276                57.0613

                     40                     41                     42
                      A                      A                      A
 Frequencies --    889.4521               916.7759               922.5347
 Red. masses --      2.7417                 1.6899                 1.7897
 Frc consts  --      1.2780                 0.8369                 0.8974
 IR Inten    --     14.1944                44.3137                46.5381

                     43                     44                     45
                      A                      A                      A
 Frequencies --    976.4639               995.9130               999.4922
 Red. masses --      2.7070                 3.0336                 2.1881
 Frc consts  --      1.5207                 1.7728                 1.2879
 IR Inten    --     26.2676                 9.8476                16.4579

                     46                     47                     48
                      A                      A                      A
 Frequencies --   1012.2635              1024.4307              1046.3742
 Red. masses --      2.4147                 2.5992                 1.7652
 Frc consts  --      1.4578                 1.6071                 1.1387
 IR Inten    --     40.1198                31.4415                 2.7893

                     49                     50                     51
                      A                      A                      A
 Frequencies --   1049.0610              1062.3904              1128.7690
 Red. masses --      1.6618                 3.2519                 6.3953
 Frc consts  --      1.0775                 2.1625                 4.8009
 IR Inten    --     12.7902                 9.0111                62.1194

                     52                     53                     54
                      A                      A                      A
 Frequencies --   1139.9999              1143.9803              1181.5278
 Red. masses --      1.2648                 1.2738                 1.4653
 Frc consts  --      0.9685                 0.9822                 1.2052
 IR Inten    --      0.7615                 5.8397                17.2068

                     55                     56                     57
                      A                      A                      A
 Frequencies --   1187.5787              1189.1592              1196.3445
 Red. masses --      1.3755                 1.4140                 1.5407
 Frc consts  --      1.1430                 1.1781                 1.2992
 IR Inten    --     51.2698                14.1732               174.9442

                     58                     59                     60
                      A                      A                      A
 Frequencies --   1215.5753              1230.3479              1239.9853
 Red. masses --      1.3957                 1.6082                 1.8530
 Frc consts  --      1.2151                 1.4343                 1.6786
 IR Inten    --      4.0853                33.2448                 4.1293

                     61                     62                     63
                      A                      A                      A
 Frequencies --   1259.3840              1277.9534              1283.8196
 Red. masses --      1.6647                 1.9349                 2.0087
 Frc consts  --      1.5556                 1.8618                 1.9506
 IR Inten    --     36.8121                 2.5425                 1.8134

                     64                     65                     66
                      A                      A                      A
 Frequencies --   1326.8239              1329.4931              1354.0132
 Red. masses --      1.4030                 1.3648                 3.2713
 Frc consts  --      1.4552                 1.4214                 3.5336
 IR Inten    --      8.4143                12.7728                64.4944

                     67                     68                     69
                      A                      A                      A
 Frequencies --   1375.6253              1393.4086              1411.2388
 Red. masses --      1.1564                 1.6490                 1.5734
 Frc consts  --      1.2893                 1.8864                 1.8463
 IR Inten    --     14.6725                68.7892                52.9172

                     70                     71                     72
                      A                      A                      A
 Frequencies --   1431.8411              1458.7430              1460.2578
 Red. masses --      4.3385                 1.1069                 1.1315
 Frc consts  --      5.2405                 1.3877                 1.4216
 IR Inten    --    149.9578                23.9231                 7.1163

                     73                     74                     75
                      A                      A                      A
 Frequencies --   1461.9596              1485.3543              1486.5964
 Red. masses --      1.1381                 1.1049                 1.0861
 Frc consts  --      1.4332                 1.4363                 1.4142
 IR Inten    --     30.2336                27.4075                 2.1517

                     76                     77                     78
                      A                      A                      A
 Frequencies --   1487.0252              1487.8672              1491.2569
 Red. masses --      1.0571                 1.0407                 1.1029
 Frc consts  --      1.3772                 1.3573                 1.4451
 IR Inten    --      1.7199                 1.6485                 1.3176

                     79                     80                     81
                      A                      A                      A
 Frequencies --   1494.8544              1500.8577              1503.2375
 Red. masses --      1.1109                 1.0671                 1.0611
 Frc consts  --      1.4626                 1.4162                 1.4127
 IR Inten    --      2.9184                 1.9182                30.3395

                     82                     83                     84
                      A                      A                      A
 Frequencies --   1511.7359              1513.9516              1519.4110
 Red. masses --      1.0469                 1.0712                 1.0979
 Frc consts  --      1.4096                 1.4465                 1.4933
 IR Inten    --     25.4409                59.1771                57.3919

                     85                     86                     87
                      A                      A                      A
 Frequencies --   1524.8077              1528.4815              1542.5935
 Red. masses --      1.2017                 2.4974                 1.0324
 Frc consts  --      1.6462                 3.4376                 1.4475
 IR Inten    --      2.4820               231.7479                 0.5374

                     88                     89                     90
                      A                      A                      A
 Frequencies --   1560.3802              1654.8093              1696.5741
 Red. masses --      4.0901                 7.6816                 6.8101
 Frc consts  --      5.8675                12.3935                11.5491
 IR Inten    --      7.6734               143.9600               480.8066

                     91                     92                     93
                      A                      A                      A
 Frequencies --   1719.2864              2543.6082              3071.3256
 Red. masses --      1.0253                 1.0651                 1.0368
 Frc consts  --      1.7856                 4.0600                 5.7623
 IR Inten    --     42.7501                19.7675                50.4534

                     94                     95                     96
                      A                      A                      A
 Frequencies --   3071.6290              3071.7654              3072.0821
 Red. masses --      1.0358                 1.0362                 1.0368
 Frc consts  --      5.7581                 5.7608                 5.7652
 IR Inten    --     14.1412                 8.5510                 9.6427

                     97                     98                     99
                      A                      A                      A
 Frequencies --   3095.7180              3096.9243              3106.0279
 Red. masses --      1.0608                 1.0608                 1.0360
 Frc consts  --      5.9900                 5.9944                 5.8888
 IR Inten    --      2.9223                 3.5567                 1.5624

                    100                    101                    102
                      A                      A                      A
 Frequencies --   3151.1251              3152.2414              3159.8551
 Red. masses --      1.1056                 1.1053                 1.1030
 Frc consts  --      6.4683                 6.4707                 6.4885
 IR Inten    --      5.4440                 4.7758                 2.9876

                    103                    104                    105
                      A                      A                      A
 Frequencies --   3159.9141              3161.2297              3161.4038
 Red. masses --      1.1029                 1.1019                 1.1017
 Frc consts  --      6.4887                 6.4879                 6.4873
 IR Inten    --     14.2594                 5.7177                 4.1746

                    106                    107                    108
                      A                      A                      A
 Frequencies --   3184.3803              3191.6640              3192.6922
 Red. masses --      1.0982                 1.1066                 1.1064
 Frc consts  --      6.5611                 6.6417                 6.6444
 IR Inten    --      5.6985                 8.8233                13.7072

                    109                    110                    111
                      A                      A                      A
 Frequencies --   3192.9333              3194.8160              3216.5959
 Red. masses --      1.1057                 1.1048                 1.1066
 Frc consts  --      6.6414                 6.6440                 6.7459
 IR Inten    --      3.1989                 1.0423                 0.2287

                    112                    113                    114
                      A                      A                      A
 Frequencies --   3236.6826              3251.2090              3862.2843
 Red. masses --      1.0946                 1.0948                 1.0666
 Frc consts  --      6.7562                 6.8180                 9.3748
 IR Inten    --      1.7534                 2.7053               266.6259

 - Thermochemistry -
 -------------------
 Temperature   298.150 Kelvin.  Pressure   1.00000 Atm.
 Atom     1 has atomic number 78 and mass 194.96480

 Molecular mass:   420.14891 amu.
 Principal axes and moments of inertia in atomic units:
                           1         2         3
     Eigenvalues --  3319.452635384.559457923.03598
           X            0.99996  -0.00790   0.00494
           Y            0.00790   0.99997   0.00022
           Z           -0.00494  -0.00018   0.99999
 This molecule is an asymmetric top.
 Rotational symmetry number  1.
 Warning -- assumption of classical behavior for rotation
           may cause significant error
 Rotational temperatures (Kelvin)      0.02609     0.01609     0.01093
 Rotational constants (GHZ):           0.54369     0.33517     0.22778
 Zero-point vibrational energy     933375.1 (Joules/Mol)
                                  223.08200 (Kcal/Mol)
 Warning -- explicit consideration of  33 degrees of freedom as
           vibrations may cause significant error
 Vibrational temperatures:    122.33   123.99   150.60   247.34   250.65
          (Kelvin)            271.31   299.99   305.49   332.72   356.62
                              379.02   394.94   400.27   410.19   410.61
                              414.42   435.65   438.71   450.87   466.68
                              509.54   512.60   583.45   595.07   618.38
                              664.95   696.36   720.11   729.73   779.42
                              790.83   835.36   891.08   909.33   925.50
                             1001.51  1042.47  1086.23  1269.00  1279.72
                             1319.04  1327.32  1404.91  1432.90  1438.05
                             1456.42  1473.93  1505.50  1509.36  1528.54
                             1624.05  1640.21  1645.93  1699.96  1708.66
                             1710.93  1721.27  1748.94  1770.20  1784.06
                             1811.97  1838.69  1847.13  1909.00  1912.84
                             1948.12  1979.22  2004.80  2030.46  2060.10
                             2098.81  2100.99  2103.43  2137.09  2138.88
                             2139.50  2140.71  2145.59  2150.76  2159.40
                             2162.82  2175.05  2178.24  2186.09  2193.86
                             2199.14  2219.45  2245.04  2380.90  2440.99
                             2473.67  3659.68  4418.95  4419.39  4419.59
                             4420.04  4454.05  4455.78  4468.88  4533.77
                             4535.37  4546.33  4546.41  4548.30  4548.55
                             4581.61  4592.09  4593.57  4593.92  4596.63
                             4627.96  4656.86  4677.76  5556.97

 Zero-point correction=                           0.355504 (Hartree/Particle)
 Thermal correction to Energy=                    0.373454
 Thermal correction to Enthalpy=                  0.374398
 Thermal correction to Gibbs Free Energy=         0.312092
 Sum of electronic and zero-point Energies=           -829.436859
 Sum of electronic and thermal Energies=              -829.418909
 Sum of electronic and thermal Enthalpies=            -829.417965
 Sum of electronic and thermal Free Energies=         -829.480270

                     E (Thermal)             CV                S
                      KCal/Mol        Cal/Mol-Kelvin    Cal/Mol-Kelvin
 Total                  234.346             72.432            131.133
 Electronic               0.000              0.000              0.000
 Translational            0.889              2.981             43.997
 Rotational               0.889              2.981             33.315
 Vibrational            232.568             66.471             53.821
 Vibration     1          0.601              1.960              3.772
 Vibration     2          0.601              1.959              3.745
 Vibration     3          0.605              1.945              3.365
 Vibration     4          0.626              1.877              2.415
 Vibration     5          0.627              1.874              2.390
 Vibration     6          0.633              1.856              2.242
 Vibration     7          0.642              1.828              2.057
 Vibration     8          0.643              1.822              2.024
 Vibration     9          0.653              1.793              1.869
 Vibration    10          0.661              1.766              1.746
 Vibration    11          0.670              1.740              1.639
 Vibration    12          0.677              1.720              1.568
 Vibration    13          0.679              1.714              1.545
 Vibration    14          0.683              1.701              1.503
 Vibration    15          0.683              1.701              1.501
 Vibration    16          0.685              1.696              1.485
 Vibration    17          0.694              1.668              1.401
 Vibration    18          0.696              1.664              1.390
 Vibration    19          0.701              1.648              1.344
 Vibration    20          0.709              1.627              1.288
 Vibration    21          0.730              1.567              1.148
 Vibration    22          0.732              1.562              1.138
 Vibration    23          0.770              1.458              0.943
 Vibration    24          0.777              1.441              0.914
 Vibration    25          0.791              1.405              0.859
 Vibration    26          0.820              1.334              0.760
 Vibration    27          0.840              1.286              0.699
 Vibration    28          0.856              1.249              0.657
 Vibration    29          0.862              1.234              0.640
 Vibration    30          0.897              1.158              0.562
 Vibration    31          0.905              1.140              0.545
 Vibration    32          0.937              1.073              0.484
 Vibration    33          0.979              0.991              0.418

 Optimization completed.
    -- Stationary point found.
 Normal termination of Gaussian 16 at Fri Mar 29 13:20:19 2024.
