 Gaussian 16, Revision C.01,
 Gaussian 16:  ES64L-G16RevC.01  3-Jul-2019

 ----------------------------------------------------------
 # wb97xd def2TZVPP SCRF=(solvent=dichloromethane) opt freq
 ----------------------------------------------------------

 -------------
 HZRhMeH_sigma
 -------------
 Symbolic Z-matrix:
 Charge =  1 Multiplicity = 1

 SCF Done:  E(RwB97XD) =  -821.116950142     A.U. after   18 cycles
 SCF Done:  E(RwB97XD) =  -821.148812427     A.U. after   14 cycles
 SCF Done:  E(RwB97XD) =  -821.158669341     A.U. after   15 cycles
 SCF Done:  E(RwB97XD) =  -821.159977272     A.U. after   13 cycles
 SCF Done:  E(RwB97XD) =  -821.159387820     A.U. after   14 cycles
 SCF Done:  E(RwB97XD) =  -821.160382154     A.U. after   14 cycles
 SCF Done:  E(RwB97XD) =  -821.160462950     A.U. after   13 cycles
 SCF Done:  E(RwB97XD) =  -821.160577171     A.U. after   12 cycles
 SCF Done:  E(RwB97XD) =  -821.160604696     A.U. after   11 cycles
 SCF Done:  E(RwB97XD) =  -821.160612892     A.U. after   11 cycles
 SCF Done:  E(RwB97XD) =  -821.160617718     A.U. after   10 cycles
 SCF Done:  E(RwB97XD) =  -821.160623483     A.U. after   11 cycles
 SCF Done:  E(RwB97XD) =  -821.160626879     A.U. after   11 cycles
 SCF Done:  E(RwB97XD) =  -821.160628637     A.U. after    9 cycles
 SCF Done:  E(RwB97XD) =  -821.160629271     A.U. after    9 cycles
 SCF Done:  E(RwB97XD) =  -821.160629475     A.U. after    9 cycles
 SCF Done:  E(RwB97XD) =  -821.160629507     A.U. after    8 cycles
 Optimization completed.
    -- Stationary point found.
 Normal termination of Gaussian 16 at Fri Mar 29 05:52:26 2024.

 ----------------------------------------------------------------------
 #N Geom=AllCheck Guess=TCheck SCRF=Check GenChk RwB97XD/def2TZVPP Freq
 ----------------------------------------------------------------------

 Structure from the checkpoint file:  "HZRhMeH_sigma.chk"
 -------------
 HZRhMeH_sigma
 -------------
 Charge =  1 Multiplicity = 1

                         Standard orientation:
 ---------------------------------------------------------------------
 Center     Atomic      Atomic             Coordinates (Angstroms)
 Number     Number       Type             X           Y           Z
 ---------------------------------------------------------------------
      1          6           0        1.518613    1.153134   -0.188666
      2          6           0        1.502871   -1.179514   -0.189153
      3          6           0        2.886889    1.183872   -0.035774
      4          6           0        2.867737   -1.230804   -0.035007
      5          6           0        3.570026   -0.028721    0.057066
      6          1           0        3.415310    2.126398    0.003389
      7          1           0        3.394120   -2.172773    0.006485
      8          8           0        4.896431   -0.101664    0.220519
      9          7           0        0.859053   -0.007192   -0.230127
     10          6           0        0.639919    2.343996   -0.444615
     11          1           0        0.607697    2.482894   -1.526344
     12          1           0        1.049661    3.257252   -0.007108
     13          6           0        0.605286   -2.355412   -0.447996
     14          1           0        0.567911   -2.489067   -1.530224
     15          1           0        1.002652   -3.276421   -0.015509
     16          7           0       -0.755725    2.115558    0.020857
     17          7           0       -0.785504   -2.107476    0.021937
     18          6           0       -3.482428    0.022755    0.184146
     19          1           0       -2.849922    0.018904    1.087288
     20          1           0       -4.091257    0.921549    0.197440
     21          1           0       -4.102694   -0.868161    0.197704
     22          6           0       -1.670850    2.957999   -0.766049
     23          1           0       -2.682241    2.831678   -0.387951
     24          1           0       -1.395325    4.014406   -0.689021
     25          1           0       -1.641035    2.649078   -1.807909
     26          6           0       -0.854534    2.492964    1.445045
     27          1           0       -0.644113    3.559583    1.572420
     28          1           0       -1.857833    2.283103    1.806984
     29          1           0       -0.142517    1.914432    2.029098
     30          6           0       -1.714578   -2.937898   -0.761335
     31          1           0       -1.452030   -3.997681   -0.685724
     32          1           0       -2.722812   -2.798970   -0.379145
     33          1           0       -1.685027   -2.629182   -1.803267
     34          6           0       -0.884598   -2.482643    1.446735
     35          1           0       -1.883297   -2.257805    1.812412
     36          1           0       -0.689371   -3.552140    1.574004
     37          1           0       -0.161676   -1.914669    2.027777
     38          1           0       -2.921734    0.019026   -0.784744
     39         45           0       -1.082303    0.006074   -0.111176
     40          1           0        5.286818    0.773976    0.265679
 ---------------------------------------------------------------------

 SCF Done:  E(RwB97XD) =  -821.160629507     A.U. after    1 cycles

 The electronic state is 1-A.
 Alpha  occ. eigenvalues --  -19.31715 -14.51170 -14.51130 -14.50149 -10.39997
 Alpha  occ. eigenvalues --  -10.37208 -10.37073 -10.35257 -10.35166 -10.32791
 Alpha  occ. eigenvalues --  -10.32752 -10.32744 -10.32711 -10.32428 -10.32083
 Alpha  occ. eigenvalues --  -10.30308  -3.30204  -2.06679  -2.06420  -2.02930
 Alpha  occ. eigenvalues --   -1.21018  -1.11613  -1.07825  -1.07028  -0.94037
 Alpha  occ. eigenvalues --   -0.93474  -0.86235  -0.83917  -0.83765  -0.83714
 Alpha  occ. eigenvalues --   -0.83262  -0.77374  -0.76076  -0.73022  -0.72762
 Alpha  occ. eigenvalues --   -0.67144  -0.64774  -0.61965  -0.61553  -0.60336
 Alpha  occ. eigenvalues --   -0.60255  -0.59194  -0.58863  -0.58182  -0.55972
 Alpha  occ. eigenvalues --   -0.54235  -0.53707  -0.53641  -0.52731  -0.52514
 Alpha  occ. eigenvalues --   -0.52088  -0.51643  -0.51025  -0.50670  -0.49714
 Alpha  occ. eigenvalues --   -0.48986  -0.48932  -0.48139  -0.47879  -0.47070
 Alpha  occ. eigenvalues --   -0.46290  -0.45092  -0.43094  -0.38626  -0.38011
 Alpha  occ. eigenvalues --   -0.36976  -0.31670  -0.29523  -0.28007  -0.27355
 Alpha virt. eigenvalues --    0.00709   0.01565   0.05240   0.06437   0.07113
 Alpha virt. eigenvalues --    0.08339   0.09296   0.10904   0.12160   0.13172
 Alpha virt. eigenvalues --    0.13200   0.14035   0.14337   0.14431   0.15307

 Mulliken charges:
               1
     1  C    0.107339
     2  C    0.131569
     3  C   -0.172621
     4  C   -0.187646
     5  C    0.271826
     6  H    0.118838
     7  H    0.130417
     8  O   -0.280827
     9  N   -0.178482
    10  C   -0.075279
    11  H    0.124982
    12  H    0.119489
    13  C   -0.072407
    14  H    0.124558
    15  H    0.120067
    16  N   -0.082214
    17  N   -0.082138
    18  C   -0.304916
    19  H    0.105914
    20  H    0.114929
    21  H    0.114847
    22  C   -0.169682
    23  H    0.105693
    24  H    0.113680
    25  H    0.115105
    26  C   -0.149384
    27  H    0.104608
    28  H    0.106199
    29  H    0.119679
    30  C   -0.169776
    31  H    0.113812
    32  H    0.105383
    33  H    0.115094
    34  C   -0.149541
    35  H    0.106014
    36  H    0.104924
    37  H    0.119742
    38  H    0.080414
    39  Rh  -0.138104
    40  H    0.217894
 Sum of Mulliken charges =   1.00000

 Dipole moment (field-independent basis, Debye):
    X=              0.9839    Y=              1.6501    Z=              0.5572  Tot=              2.0004
 Quadrupole moment (field-independent basis, Debye-Ang):
   XX=            -82.1862   YY=            -77.8569   ZZ=           -113.3869
   XY=              9.2092   XZ=             -1.1199   YZ=              0.4836

  Exact polarizability:     322.226       1.165     274.106       6.272       0.097     194.985
 Approx polarizability:     256.093       0.494     228.500       5.333       0.012     184.236

                      1                      2                      3
                      A                      A                      A
 Frequencies --     54.8489                60.8361                62.9255
 Red. masses --      2.9767                 4.3036                 3.2445
 Frc consts  --      0.0053                 0.0094                 0.0076
 IR Inten    --      0.2965                 1.5642                 1.4519

                      4                      5                      6
                      A                      A                      A
 Frequencies --    111.9191               166.5333               180.0180
 Red. masses --      3.9266                 3.0444                 3.9898
 Frc consts  --      0.0290                 0.0497                 0.0762
 IR Inten    --      6.0153                 1.0689                 3.5774

                      7                      8                      9
                      A                      A                      A
 Frequencies --    192.3377               204.1203               211.2476
 Red. masses --      2.5686                 3.3289                 3.1972
 Frc consts  --      0.0560                 0.0817                 0.0841
 IR Inten    --      0.3446                 1.5595                 4.8969

                     10                     11                     12
                      A                      A                      A
 Frequencies --    230.0436               247.2552               250.4709
 Red. masses --      1.0619                 3.4642                 3.7394
 Frc consts  --      0.0331                 0.1248                 0.1382
 IR Inten    --      0.1254                 2.7641                 2.3724

                     13                     14                     15
                      A                      A                      A
 Frequencies --    267.9045               269.2493               274.7517
 Red. masses --      2.7658                 3.1441                 3.4286
 Frc consts  --      0.1170                 0.1343                 0.1525
 IR Inten    --      0.2985                 1.1112                 4.8333

                     16                     17                     18
                      A                      A                      A
 Frequencies --    281.0000               291.8357               298.5403
 Red. masses --      4.8448                 1.1962                 1.3446
 Frc consts  --      0.2254                 0.0600                 0.0706
 IR Inten    --      4.5454                 0.1643                 0.7106

                     19                     20                     21
                      A                      A                      A
 Frequencies --    310.0554               316.9269               335.0559
 Red. masses --      1.2224                 1.1086                 2.7167
 Frc consts  --      0.0692                 0.0656                 0.1797
 IR Inten    --      0.5318                 0.1675                 0.5824

                     22                     23                     24
                      A                      A                      A
 Frequencies --    359.6828               395.5234               403.7238
 Red. masses --      5.2168                 2.2573                 2.2996
 Frc consts  --      0.3976                 0.2081                 0.2208
 IR Inten    --      0.0254                 4.0648                 0.3663

                     25                     26                     27
                      A                      A                      A
 Frequencies --    414.1463               426.4684               453.0008
 Red. masses --      1.1532                 1.1448                 2.5682
 Frc consts  --      0.1165                 0.1227                 0.3105
 IR Inten    --      7.7363               136.4892                10.7358

                     28                     29                     30
                      A                      A                      A
 Frequencies --    483.1377               496.5073               501.7420
 Red. masses --      2.5828                 2.9002                 2.7792
 Frc consts  --      0.3552                 0.4212                 0.4122
 IR Inten    --     12.5804                 2.7787                 4.8908

                     31                     32                     33
                      A                      A                      A
 Frequencies --    522.7370               557.5189               585.5704
 Red. masses --      3.1602                 3.2626                 1.0692
 Frc consts  --      0.5088                 0.5975                 0.2160
 IR Inten    --     14.1684                12.0905                 2.1752

                     34                     35                     36
                      A                      A                      A
 Frequencies --    611.1793               623.2936               697.7071
 Red. masses --      6.1424                 3.6888                 5.5688
 Frc consts  --      1.3519                 0.8443                 1.5972
 IR Inten    --     21.2202                 2.5454                 1.3869

                     37                     38                     39
                      A                      A                      A
 Frequencies --    719.1528               758.5142               874.6975
 Red. masses --      3.6106                 3.2404                 1.9375
 Frc consts  --      1.1002                 1.0984                 0.8734
 IR Inten    --      6.9939                 3.5560                34.3493

                     40                     41                     42
                      A                      A                      A
 Frequencies --    881.7061               903.1300               910.7924
 Red. masses --      2.5939                 2.2188                 1.8681
 Frc consts  --      1.1881                 1.0663                 0.9130
 IR Inten    --     26.1125                51.8358                42.9939

                     43                     44                     45
                      A                      A                      A
 Frequencies --    976.0780               995.0392              1012.6086
 Red. masses --      2.4957                 2.2075                 2.7135
 Frc consts  --      1.4009                 1.2878                 1.6393
 IR Inten    --     18.5898                20.3493                 7.0862

                     46                     47                     48
                      A                      A                      A
 Frequencies --   1014.2547              1035.3812              1052.6133
 Red. masses --      2.6170                 2.5378                 1.7367
 Frc consts  --      1.5862                 1.6029                 1.1338
 IR Inten    --     39.2793                26.0639                 6.8571

                     49                     50                     51
                      A                      A                      A
 Frequencies --   1054.3833              1059.7136              1101.9151
 Red. masses --      1.6258                 2.9562                 6.4078
 Frc consts  --      1.0649                 1.9560                 4.5841
 IR Inten    --     15.0802                 8.9617                 7.6800

                     52                     53                     54
                      A                      A                      A
 Frequencies --   1131.9934              1134.9534              1181.0145
 Red. masses --      1.2646                 1.2634                 1.4922
 Frc consts  --      0.9547                 0.9589                 1.2262
 IR Inten    --      1.1867                 3.2348               202.7928

                     55                     56                     57
                      A                      A                      A
 Frequencies --   1187.7067              1192.0264              1206.1516
 Red. masses --      1.5947                 1.5337                 1.4967
 Frc consts  --      1.3254                 1.2840                 1.2829
 IR Inten    --      6.4811                50.6538                 0.8781

                     58                     59                     60
                      A                      A                      A
 Frequencies --   1220.4511              1223.4727              1242.4245
 Red. masses --      1.7025                 1.8393                 1.2303
 Frc consts  --      1.4941                 1.6221                 1.1189
 IR Inten    --     29.1987                 3.6376                14.5639

                     61                     62                     63
                      A                      A                      A
 Frequencies --   1247.2557              1283.7450              1288.4023
 Red. masses --      1.5559                 2.0539                 2.1066
 Frc consts  --      1.4261                 1.9943                 2.0603
 IR Inten    --     63.5785                 2.4107                 5.3768

                     64                     65                     66
                      A                      A                      A
 Frequencies --   1322.2328              1323.1779              1342.9785
 Red. masses --      1.5388                 1.5678                 2.4945
 Frc consts  --      1.5850                 1.6173                 2.6508
 IR Inten    --     29.4067                 1.6528                65.2001

                     67                     68                     69
                      A                      A                      A
 Frequencies --   1383.9497              1395.5015              1405.3962
 Red. masses --      1.7775                 1.1499                 1.4774
 Frc consts  --      2.0059                 1.3194                 1.7193
 IR Inten    --     57.3386                59.7047                39.0997

                     70                     71                     72
                      A                      A                      A
 Frequencies --   1423.9309              1435.0310              1453.2825
 Red. masses --      4.0726                 1.1201                 1.1542
 Frc consts  --      4.8651                 1.3591                 1.4363
 IR Inten    --     62.3033                49.5851                 2.3250

                     73                     74                     75
                      A                      A                      A
 Frequencies --   1454.6334              1472.3848              1473.6844
 Red. masses --      1.1536                 1.1196                 1.1150
 Frc consts  --      1.4382                 1.4301                 1.4267
 IR Inten    --     12.4778                 9.5247                 7.9795

                     76                     77                     78
                      A                      A                      A
 Frequencies --   1484.6944              1485.3573              1488.0814
 Red. masses --      1.0525                 1.0517                 1.1423
 Frc consts  --      1.3669                 1.3671                 1.4904
 IR Inten    --      1.5220                 1.4963                 4.6123

                     79                     80                     81
                      A                      A                      A
 Frequencies --   1490.2293              1495.1100              1502.4750
 Red. masses --      1.1437                 1.0342                 1.0587
 Frc consts  --      1.4965                 1.3621                 1.4081
 IR Inten    --      3.3056                 3.5827                24.5149

                     82                     83                     84
                      A                      A                      A
 Frequencies --   1505.4147              1508.2651              1510.4775
 Red. masses --      1.0559                 1.1263                 1.1624
 Frc consts  --      1.4099                 1.5097                 1.5626
 IR Inten    --     36.8244               103.0823                16.3836

                     85                     86                     87
                      A                      A                      A
 Frequencies --   1510.8770              1513.0459              1514.7166
 Red. masses --      1.3532                 1.2263                 1.2251
 Frc consts  --      1.8200                 1.6540                 1.6561
 IR Inten    --     43.2144                61.4499               129.7493

                     88                     89                     90
                      A                      A                      A
 Frequencies --   1543.7369              1656.1859              1692.4492
 Red. masses --      3.9188                 7.6994                 6.6773
 Frc consts  --      5.5024                12.4430                11.2689
 IR Inten    --      9.6845               137.5714               355.9616

                     91                     92                     93
                      A                      A                      A
 Frequencies --   1712.0965              2789.6985              2984.1326
 Red. masses --      1.0211                 1.0552                 1.0732
 Frc consts  --      1.7635                 4.8382                 5.6308
 IR Inten    --    106.0502                20.7083                11.2052

                     94                     95                     96
                      A                      A                      A
 Frequencies --   3032.9243              3033.7869              3034.8334
 Red. masses --      1.0453                 1.0448                 1.0456
 Frc consts  --      5.6650                 5.6656                 5.6740
 IR Inten    --     76.9523                52.9996               139.5335

                     97                     98                     99
                      A                      A                      A
 Frequencies --   3035.7356              3064.8672              3066.1654
 Red. masses --      1.0459                 1.0603                 1.0601
 Frc consts  --      5.6788                 5.8682                 5.8721
 IR Inten    --     15.3556                30.4254                22.9615

                    100                    101                    102
                      A                      A                      A
 Frequencies --   3115.6799              3116.7839              3132.9814
 Red. masses --      1.1049                 1.1049                 1.0897
 Frc consts  --      6.3193                 6.3238                 6.3018
 IR Inten    --      9.2210                 8.0647                 2.9750

                    103                    104                    105
                      A                      A                      A
 Frequencies --   3133.1923              3135.2121              3136.0444
 Red. masses --      1.0902                 1.0862                 1.0896
 Frc consts  --      6.3056                 6.2904                 6.3136
 IR Inten    --     28.4013                 7.2480                20.3328

                    106                    107                    108
                      A                      A                      A
 Frequencies --   3138.6483              3172.1101              3172.2342
 Red. masses --      1.0751                 1.1060                 1.1060
 Frc consts  --      6.2400                 6.5570                 6.5574
 IR Inten    --     23.6820                 9.0379                 9.4086

                    109                    110                    111
                      A                      A                      A
 Frequencies --   3175.3267              3176.1032              3197.3505
 Red. masses --      1.1058                 1.1057                 1.1056
 Frc consts  --      6.5692                 6.5719                 6.6590
 IR Inten    --      9.6998                28.1322                 8.2724

                    112                    113                    114
                      A                      A                      A
 Frequencies --   3222.7085              3240.9216              3878.4208
 Red. masses --      1.0937                 1.0937                 1.0664
 Frc consts  --      6.6924                 6.7684                 9.4509
 IR Inten    --      3.6734                 0.6833               216.5396

 - Thermochemistry -
 -------------------
 Temperature   298.150 Kelvin.  Pressure   1.00000 Atm.
 Atom     1 has atomic number  6 and mass  12.00000

 Molecular mass:   328.08891 amu.
 Principal axes and moments of inertia in atomic units:
                           1         2         3
     Eigenvalues --  3359.669785085.103257677.76060
           X            0.99995   0.00921  -0.00315
           Y           -0.00921   0.99996   0.00027
           Z            0.00315  -0.00024   1.00000
 This molecule is an asymmetric top.
 Rotational symmetry number  1.
 Warning -- assumption of classical behavior for rotation
           may cause significant error
 Rotational temperatures (Kelvin)      0.02578     0.01703     0.01128
 Rotational constants (GHZ):           0.53718     0.35491     0.23506
 Zero-point vibrational energy     925458.9 (Joules/Mol)
                                  221.18999 (Kcal/Mol)
 Warning -- explicit consideration of  34 degrees of freedom as
           vibrations may cause significant error
 Vibrational temperatures:     78.92    87.53    90.54   161.03   239.60
          (Kelvin)            259.01   276.73   293.68   303.94   330.98
                              355.75   360.37   385.45   387.39   395.31
                              404.30   419.89   429.53   446.10   455.99
                              482.07   517.50   569.07   580.87   595.86
                              613.59   651.77   695.13   714.36   721.89
                              752.10   802.15   842.51   879.35   896.78
                             1003.84  1034.70  1091.33  1258.49  1268.58
                             1299.40  1310.43  1404.36  1431.64  1456.92
                             1459.29  1489.68  1514.48  1517.02  1524.69
                             1585.41  1628.69  1632.94  1699.22  1708.85
                             1715.06  1735.38  1755.96  1760.30  1787.57
                             1794.52  1847.02  1853.72  1902.40  1903.76
                             1932.25  1991.19  2007.82  2022.05  2048.72
                             2064.69  2090.95  2092.89  2118.43  2120.30
                             2136.14  2137.10  2141.02  2144.11  2151.13
                             2161.73  2165.96  2170.06  2173.24  2173.82
                             2176.94  2179.34  2221.09  2382.88  2435.06
                             2463.32  4013.75  4293.50  4363.70  4364.94
                             4366.45  4367.75  4409.66  4411.53  4482.77
                             4484.36  4507.66  4507.96  4510.87  4512.07
                             4515.81  4563.96  4564.14  4568.59  4569.70
                             4600.27  4636.76  4662.96  5580.18

 Zero-point correction=                           0.352489 (Hartree/Particle)
 Thermal correction to Energy=                    0.371245
 Thermal correction to Enthalpy=                  0.372190
 Thermal correction to Gibbs Free Energy=         0.307628
 Sum of electronic and zero-point Energies=           -820.808141
 Sum of electronic and thermal Energies=              -820.789384
 Sum of electronic and thermal Enthalpies=            -820.788440
 Sum of electronic and thermal Free Energies=         -820.853002

                     E (Thermal)             CV                S
                      KCal/Mol        Cal/Mol-Kelvin    Cal/Mol-Kelvin
 Total                  232.960             73.647            135.882
 Electronic               0.000              0.000              0.000
 Translational            0.889              2.981             43.260
 Rotational               0.889              2.981             33.239
 Vibrational            231.183             67.685             59.383
 Vibration     1          0.596              1.976              4.634
 Vibration     2          0.597              1.973              4.430
 Vibration     3          0.597              1.972              4.363
 Vibration     4          0.607              1.940              3.235
 Vibration     5          0.624              1.884              2.474
 Vibration     6          0.629              1.867              2.328
 Vibration     7          0.634              1.850              2.205
 Vibration     8          0.640              1.834              2.096
 Vibration     9          0.643              1.824              2.033
 Vibration    10          0.652              1.795              1.879
 Vibration    11          0.661              1.767              1.750
 Vibration    12          0.663              1.762              1.727
 Vibration    13          0.673              1.732              1.610
 Vibration    14          0.674              1.730              1.601
 Vibration    15          0.677              1.720              1.566
 Vibration    16          0.681              1.709              1.528
 Vibration    17          0.687              1.689              1.463
 Vibration    18          0.692              1.676              1.425
 Vibration    19          0.699              1.655              1.362
 Vibration    20          0.704              1.641              1.326
 Vibration    21          0.716              1.605              1.236
 Vibration    22          0.734              1.555              1.123
 Vibration    23          0.762              1.480              0.979
 Vibration    24          0.769              1.462              0.949
 Vibration    25          0.778              1.440              0.912
 Vibration    26          0.788              1.413              0.870
 Vibration    27          0.812              1.354              0.787
 Vibration    28          0.839              1.287              0.702
 Vibration    29          0.852              1.258              0.667
 Vibration    30          0.857              1.246              0.654
 Vibration    31          0.878              1.200              0.604
 Vibration    32          0.913              1.123              0.529
 Vibration    33          0.943              1.063              0.475
 Vibration    34          0.970              1.008              0.431

 Optimization completed.
    -- Stationary point found.
 Normal termination of Gaussian 16 at Fri Mar 29 13:37:07 2024.
