 Gaussian 16, Revision C.01,
 Gaussian 16:  ES64L-G16RevC.01  3-Jul-2019

 ----------------------------------------------------------
 # wb97xd def2TZVPP SCRF=(solvent=dichloromethane) opt freq
 ----------------------------------------------------------

 ------
 HZRhMe
 ------
 Symbolic Z-matrix:
 Charge =  0 Multiplicity = 1

 SCF Done:  E(RwB97XD) =  -820.651019809     A.U. after   18 cycles
 SCF Done:  E(RwB97XD) =  -820.657149592     A.U. after   14 cycles
 SCF Done:  E(RwB97XD) =  -820.656050802     A.U. after   16 cycles
 SCF Done:  E(RwB97XD) =  -820.657487588     A.U. after   15 cycles
 SCF Done:  E(RwB97XD) =  -820.657799918     A.U. after   13 cycles
 SCF Done:  E(RwB97XD) =  -820.657850123     A.U. after   13 cycles
 SCF Done:  E(RwB97XD) =  -820.657861611     A.U. after   13 cycles
 SCF Done:  E(RwB97XD) =  -820.657866259     A.U. after   13 cycles
 SCF Done:  E(RwB97XD) =  -820.657866672     A.U. after   10 cycles
 Optimization completed.
    -- Stationary point found.
 Normal termination of Gaussian 16 at Mon May 20 22:25:29 2024.

 ----------------------------------------------------------------------
 #N Geom=AllCheck Guess=TCheck SCRF=Check GenChk RwB97XD/def2TZVPP Freq
 ----------------------------------------------------------------------

 Structure from the checkpoint file:  "HZRhMe.chk"
 ------
 HZRhMe
 ------
 Charge =  0 Multiplicity = 1

                         Standard orientation:
 ---------------------------------------------------------------------
 Center     Atomic      Atomic             Coordinates (Angstroms)
 Number     Number       Type             X           Y           Z
 ---------------------------------------------------------------------
      1          6           0        1.501168    1.146815   -0.228149
      2          6           0        1.480709   -1.179372   -0.226340
      3          6           0        2.869005    1.177206   -0.042480
      4          6           0        2.845073   -1.236276   -0.040132
      5          6           0        3.547076   -0.036151    0.061922
      6          1           0        3.400159    2.118163    0.016735
      7          1           0        3.369250   -2.179151    0.022400
      8          8           0        4.880068   -0.109029    0.253458
      9          7           0        0.839236   -0.009135   -0.290457
     10          6           0        0.616509    2.339528   -0.480632
     11          1           0        0.550566    2.457192   -1.563872
     12          1           0        1.047777    3.260026   -0.074825
     13          6           0        0.572715   -2.354282   -0.478975
     14          1           0        0.504950   -2.470701   -1.562224
     15          1           0        0.986388   -3.282608   -0.072957
     16          7           0       -0.767022    2.134890    0.025296
     17          7           0       -0.806965   -2.123046    0.026339
     18          6           0       -1.690935    3.002496   -0.714085
     19          1           0       -2.695208    2.852713   -0.325618
     20          1           0       -1.416787    4.059797   -0.607618
     21          1           0       -1.680076    2.729334   -1.766536
     22          6           0       -0.816666    2.493910    1.451721
     23          1           0       -0.587412    3.558447    1.590738
     24          1           0       -1.810769    2.285271    1.838174
     25          1           0       -0.095751    1.897624    2.006397
     26          6           0       -1.746792   -2.972889   -0.713571
     27          1           0       -1.492164   -4.035108   -0.607856
     28          1           0       -2.748175   -2.805061   -0.325105
     29          1           0       -1.730782   -2.699313   -1.765853
     30          6           0       -0.864069   -2.480810    1.452824
     31          1           0       -1.854304   -2.253878    1.838850
     32          1           0       -0.654641   -3.549375    1.592054
     33          1           0       -0.132345   -1.898101    2.007787
     34          1           0        5.259992    0.770101    0.302881
     35          6           0       -3.232724    0.026511    0.205347
     36          1           0       -3.593408    0.907536    0.760944
     37          1           0       -3.786037    0.032459   -0.748305
     38          1           0       -3.609081   -0.849051    0.759081
     39         45           0       -1.147019    0.008597   -0.114575
 ---------------------------------------------------------------------

 SCF Done:  E(RwB97XD) =  -820.657866672     A.U. after    1 cycles

 The electronic state is 1-A.
 Alpha  occ. eigenvalues --  -19.29717 -14.47756 -14.47724 -14.45865 -10.37373
 Alpha  occ. eigenvalues --  -10.34147 -10.34049 -10.32709 -10.32630 -10.30313
 Alpha  occ. eigenvalues --  -10.30275 -10.30242 -10.30208 -10.30193 -10.29851
 Alpha  occ. eigenvalues --  -10.20252  -3.23751  -1.99782  -1.99702  -1.96935
 Alpha  occ. eigenvalues --   -1.18743  -1.08274  -1.04892  -1.04031  -0.91135
 Alpha  occ. eigenvalues --   -0.90912  -0.83429  -0.81399  -0.81115  -0.81080
 Alpha  occ. eigenvalues --   -0.74749  -0.73334  -0.70955  -0.70280  -0.69933
 Alpha  occ. eigenvalues --   -0.64570  -0.62010  -0.59180  -0.58740  -0.57741
 Alpha  occ. eigenvalues --   -0.57569  -0.56574  -0.56150  -0.55518  -0.53267
 Alpha  occ. eigenvalues --   -0.51639  -0.51318  -0.49967  -0.49793  -0.48968
 Alpha  occ. eigenvalues --   -0.48267  -0.47509  -0.46509  -0.46378  -0.45595
 Alpha  occ. eigenvalues --   -0.45360  -0.44505  -0.43937  -0.42264  -0.41533
 Alpha  occ. eigenvalues --   -0.41357  -0.39220  -0.35391  -0.35328  -0.34547
 Alpha  occ. eigenvalues --   -0.28488  -0.24423  -0.23538  -0.22046  -0.21435
 Alpha virt. eigenvalues --    0.03514   0.03850   0.08523   0.09240   0.10203
 Alpha virt. eigenvalues --    0.10881   0.11263   0.12155   0.14116   0.14937
 Alpha virt. eigenvalues --    0.15243   0.15811   0.16318   0.16608   0.17457

 Mulliken charges:
               1
     1  C    0.094157
     2  C    0.120665
     3  C   -0.183343
     4  C   -0.196951
     5  C    0.255774
     6  H    0.110854
     7  H    0.121958
     8  O   -0.301745
     9  N   -0.172801
    10  C   -0.080360
    11  H    0.116367
    12  H    0.105951
    13  C   -0.078265
    14  H    0.116042
    15  H    0.106850
    16  N   -0.073953
    17  N   -0.073518
    18  C   -0.171486
    19  H    0.107675
    20  H    0.099211
    21  H    0.103245
    22  C   -0.165711
    23  H    0.089635
    24  H    0.111842
    25  H    0.111825
    26  C   -0.171409
    27  H    0.099413
    28  H    0.107396
    29  H    0.103119
    30  C   -0.165824
    31  H    0.111638
    32  H    0.089908
    33  H    0.111977
    34  H    0.211903
    35  C   -0.747927
    36  H    0.039759
    37  H    0.067398
    38  H    0.039823
    39  Rh  -0.171093
 Sum of Mulliken charges =  -0.00000

 Dipole moment (field-independent basis, Debye):
    X=              8.8786    Y=              1.5648    Z=              0.4594  Tot=              9.0271
 Quadrupole moment (field-independent basis, Debye-Ang):
   XX=           -125.7114   YY=            -91.5358   ZZ=           -120.2851
   XY=              9.3656   XZ=              0.1254   YZ=              0.5375

  Exact polarizability:     376.809       1.034     290.237       8.222       0.027     225.883
 Approx polarizability:     282.126       0.409     237.868       6.617      -0.031     202.013

                      1                      2                      3
                      A                      A                      A
 Frequencies --     28.2113                55.2195                69.0570
 Red. masses --      1.2832                 4.1879                 3.3762
 Frc consts  --      0.0006                 0.0075                 0.0095
 IR Inten    --      0.0861                 0.2032                13.0915

                      4                      5                      6
                      A                      A                      A
 Frequencies --     78.5812               134.8584               169.6561
 Red. masses --      2.1552                 2.8546                 3.7532
 Frc consts  --      0.0078                 0.0306                 0.0636
 IR Inten    --      0.2097                 1.7659                 5.0317

                      7                      8                      9
                      A                      A                      A
 Frequencies --    184.1224               192.6621               202.1542
 Red. masses --      2.6194                 2.8432                 3.9602
 Frc consts  --      0.0523                 0.0622                 0.0954
 IR Inten    --      0.0538                 2.1749                 1.8186

                     10                     11                     12
                      A                      A                      A
 Frequencies --    207.2853               240.6016               243.5630
 Red. masses --      3.3641                 3.4941                 3.5192
 Frc consts  --      0.0852                 0.1192                 0.1230
 IR Inten    --      1.3008                 2.5777                 1.7821

                     13                     14                     15
                      A                      A                      A
 Frequencies --    263.1596               263.6145               280.8894
 Red. masses --      3.0352                 4.5787                 2.5577
 Frc consts  --      0.1238                 0.1875                 0.1189
 IR Inten    --      1.1049                 8.4254                 2.0899

                     16                     17                     18
                      A                      A                      A
 Frequencies --    283.9212               288.8721               296.0535
 Red. masses --      1.2814                 1.1937                 4.5736
 Frc consts  --      0.0609                 0.0587                 0.2362
 IR Inten    --      0.9099                 0.8107                 5.9618

                     19                     20                     21
                      A                      A                      A
 Frequencies --    307.5570               313.2210               349.7095
 Red. masses --      1.1226                 1.1338                 4.1563
 Frc consts  --      0.0626                 0.0655                 0.2995
 IR Inten    --      2.0898                 0.7974                 0.2187

                     22                     23                     24
                      A                      A                      A
 Frequencies --    397.6734               400.1792               401.3700
 Red. masses --      2.2012                 1.1679                 2.1319
 Frc consts  --      0.2051                 0.1102                 0.2024
 IR Inten    --     13.1136               126.6157                 5.1296

                     25                     26                     27
                      A                      A                      A
 Frequencies --    450.0772               471.2573               474.9542
 Red. masses --      2.4921                 3.3829                 2.4704
 Frc consts  --      0.2974                 0.4426                 0.3283
 IR Inten    --     10.2109                45.3643                12.1533

                     28                     29                     30
                      A                      A                      A
 Frequencies --    483.5177               502.9968               514.6146
 Red. masses --      2.6058                 3.1504                 3.2443
 Frc consts  --      0.3589                 0.4696                 0.5062
 IR Inten    --     17.7106                 0.5856                12.5155

                     31                     32                     33
                      A                      A                      A
 Frequencies --    555.0166               579.4661               593.1340
 Red. masses --      3.3446                 3.4148                 2.0712
 Frc consts  --      0.6070                 0.6756                 0.4293
 IR Inten    --      9.1178                55.0482                 8.6467

                     34                     35                     36
                      A                      A                      A
 Frequencies --    622.6718               693.3996               716.0966
 Red. masses --      2.5340                 4.0279                 3.6068
 Frc consts  --      0.5789                 1.1410                 1.0897
 IR Inten    --     15.5578                 1.3816                17.3528

                     37                     38                     39
                      A                      A                      A
 Frequencies --    728.5485               764.4387               868.9687
 Red. masses --      1.3833                 3.4005                 1.8437
 Frc consts  --      0.4326                 1.1708                 0.8203
 IR Inten    --      2.3669                 3.0364                30.9799

                     40                     41                     42
                      A                      A                      A
 Frequencies --    876.0981               897.0519               904.0706
 Red. masses --      2.4827                 2.4351                 1.9321
 Frc consts  --      1.1227                 1.1545                 0.9304
 IR Inten    --     30.5684                52.5758                43.7089

                     43                     44                     45
                      A                      A                      A
 Frequencies --    970.2048               991.4298              1012.3695
 Red. masses --      2.4586                 2.1990                 2.6777
 Frc consts  --      1.3635                 1.2735                 1.6169
 IR Inten    --     16.1427                19.5409                30.6371

                     46                     47                     48
                      A                      A                      A
 Frequencies --   1013.0614              1033.0619              1052.2464
 Red. masses --      2.7076                 2.6527                 2.0905
 Frc consts  --      1.6372                 1.6680                 1.3638
 IR Inten    --     29.4938                13.7045                10.1263

                     49                     50                     51
                      A                      A                      A
 Frequencies --   1056.3365              1059.8415              1066.8168
 Red. masses --      1.5948                 2.1711                 5.2725
 Frc consts  --      1.0485                 1.4369                 3.5354
 IR Inten    --     17.5949                 4.1402                 2.1949

                     52                     53                     54
                      A                      A                      A
 Frequencies --   1127.8267              1130.6852              1170.7211
 Red. masses --      1.2696                 1.2676                 1.5000
 Frc consts  --      0.9515                 0.9548                 1.2113
 IR Inten    --      2.0227                 3.6341               252.0137

                     55                     56                     57
                      A                      A                      A
 Frequencies --   1182.1670              1184.7748              1188.8931
 Red. masses --      1.2297                 1.3973                 1.5349
 Frc consts  --      1.0126                 1.1556                 1.2782
 IR Inten    --      0.9425                 6.9361                40.4599

                     58                     59                     60
                      A                      A                      A
 Frequencies --   1199.1397              1212.4154              1213.3969
 Red. masses --      1.5771                 1.7902                 1.8979
 Frc consts  --      1.3361                 1.5505                 1.6464
 IR Inten    --      3.8570                16.2611                 5.2847

                     61                     62                     63
                      A                      A                      A
 Frequencies --   1239.6072              1284.8944              1288.7609
 Red. masses --      1.6552                 2.0983                 2.1294
 Frc consts  --      1.4985                 2.0410                 2.0838
 IR Inten    --     77.5364                 3.2885                 4.9179

                     64                     65                     66
                      A                      A                      A
 Frequencies --   1315.2885              1317.3423              1341.9211
 Red. masses --      1.7791                 1.5337                 2.1992
 Frc consts  --      1.8134                 1.5681                 2.3333
 IR Inten    --     37.4690                13.9254                65.1263

                     67                     68                     69
                      A                      A                      A
 Frequencies --   1375.6511              1398.2076              1409.2585
 Red. masses --      1.8579                 1.4568                 3.8114
 Frc consts  --      2.0716                 1.6781                 4.4598
 IR Inten    --     66.6972                39.7927                11.9824

                     70                     71                     72
                      A                      A                      A
 Frequencies --   1443.0493              1444.6257              1449.7848
 Red. masses --      1.1341                 1.1561                 1.0918
 Frc consts  --      1.3914                 1.4215                 1.3520
 IR Inten    --      0.1480                 5.9152                 0.4734

                     73                     74                     75
                      A                      A                      A
 Frequencies --   1457.8978              1468.2340              1468.5320
 Red. masses --      1.1039                 1.1466                 1.1342
 Frc consts  --      1.3824                 1.4563                 1.4412
 IR Inten    --      7.8617                12.9772                 2.1703

                     76                     77                     78
                      A                      A                      A
 Frequencies --   1478.7798              1479.6256              1483.8575
 Red. masses --      1.0704                 1.0855                 1.1091
 Frc consts  --      1.3791                 1.4002                 1.4388
 IR Inten    --      2.2808                24.5339                13.0655

                     79                     80                     81
                      A                      A                      A
 Frequencies --   1484.9446              1494.4721              1495.9098
 Red. masses --      1.1260                 2.0182                 1.0906
 Frc consts  --      1.4629                 2.6558                 1.4379
 IR Inten    --     25.3852               180.3257                19.7005

                     82                     83                     84
                      A                      A                      A
 Frequencies --   1496.8017              1498.6397              1502.3498
 Red. masses --      1.1372                 1.0553                 1.0725
 Frc consts  --      1.5011                 1.3965                 1.4263
 IR Inten    --     65.4147                15.6835                73.6984

                     85                     86                     87
                      A                      A                      A
 Frequencies --   1505.7604              1506.9615              1531.5193
 Red. masses --      1.0451                 1.0615                 3.7622
 Frc consts  --      1.3961                 1.4202                 5.1992
 IR Inten    --     32.3195                14.9386                 5.7939

                     88                     89                     90
                      A                      A                      A
 Frequencies --   1652.2026              1683.4183              2928.2788
 Red. masses --      7.7127                 6.5599                 1.0328
 Frc consts  --     12.4047                10.9530                 5.2176
 IR Inten    --    113.1159               211.1487               303.9871

                     91                     92                     93
                      A                      A                      A
 Frequencies --   2977.0001              2979.4793              2998.0689
 Red. masses --      1.0968                 1.0988                 1.0529
 Frc consts  --      5.7273                 5.7473                 5.5758
 IR Inten    --    109.8507               205.9359               140.9896

                     94                     95                     96
                      A                      A                      A
 Frequencies --   2998.8082              3002.1230              3003.1103
 Red. masses --      1.0527                 1.0519                 1.0520
 Frc consts  --      5.5775                 5.5858                 5.5898
 IR Inten    --     92.4245               276.3682                11.3579

                     97                     98                     99
                      A                      A                      A
 Frequencies --   3042.6763              3044.3412              3101.0103
 Red. masses --      1.0631                 1.0628                 1.1005
 Frc consts  --      5.7990                 5.8035                 6.2349
 IR Inten    --     79.7105                53.0617                10.9599

                    100                    101                    102
                      A                      A                      A
 Frequencies --   3101.7678              3123.9768              3124.4724
 Red. masses --      1.1008                 1.0821                 1.0817
 Frc consts  --      6.2397                 6.2218                 6.2220
 IR Inten    --     11.0987                 9.0021                 6.1501

                    103                    104                    105
                      A                      A                      A
 Frequencies --   3125.4004              3125.9253              3169.0952
 Red. masses --      1.0809                 1.0810                 1.1054
 Frc consts  --      6.2210                 6.2237                 6.5412
 IR Inten    --     41.3163                 9.4817                 8.2629

                    106                    107                    108
                      A                      A                      A
 Frequencies --   3169.8998              3171.7157              3171.8566
 Red. masses --      1.1053                 1.1049                 1.1049
 Frc consts  --      6.5435                 6.5491                 6.5496
 IR Inten    --      7.4245                 3.2838                38.1009

                    109                    110                    111
                      A                      A                      A
 Frequencies --   3210.0783              3229.8462              3888.7756
 Red. masses --      1.0930                 1.0931                 1.0662
 Frc consts  --      6.6359                 6.7187                 9.5001
 IR Inten    --     12.2901                 5.4442               196.2683

 - Thermochemistry -
 -------------------
 Temperature   298.150 Kelvin.  Pressure   1.00000 Atm.
 Atom     1 has atomic number  6 and mass  12.00000

 Molecular mass:   327.08109 amu.
 Principal axes and moments of inertia in atomic units:
                           1         2         3
     Eigenvalues --  3391.041695000.208437621.74863
           X            0.99994   0.01041  -0.00335
           Y           -0.01040   0.99995   0.00032
           Z            0.00335  -0.00029   0.99999
 This molecule is an asymmetric top.
 Rotational symmetry number  1.
 Warning -- assumption of classical behavior for rotation
           may cause significant error
 Rotational temperatures (Kelvin)      0.02554     0.01732     0.01136
 Rotational constants (GHZ):           0.53221     0.36093     0.23679
 Zero-point vibrational energy     884638.2 (Joules/Mol)
                                  211.43361 (Kcal/Mol)
 Warning -- explicit consideration of  33 degrees of freedom as
           vibrations may cause significant error
 Vibrational temperatures:     40.59    79.45    99.36   113.06   194.03
          (Kelvin)            244.10   264.91   277.20   290.85   298.24
                              346.17   350.43   378.63   379.28   404.14
                              408.50   415.62   425.96   442.51   450.66
                              503.15   572.16   575.77   577.48   647.56
                              678.03   683.35   695.67   723.70   740.42
                              798.55   833.72   853.39   895.89   997.65
                             1030.30  1048.22  1099.86  1250.25  1260.51
                             1290.66  1300.76  1395.91  1426.45  1456.57
                             1457.57  1486.35  1513.95  1519.83  1524.88
                             1534.91  1622.69  1626.80  1684.41  1700.87
                             1704.63  1710.55  1725.29  1744.40  1745.81
                             1783.52  1848.68  1854.24  1892.41  1895.36
                             1930.73  1979.26  2011.71  2027.61  2076.23
                             2078.49  2085.92  2097.59  2112.46  2112.89
                             2127.63  2128.85  2134.94  2136.50  2150.21
                             2152.28  2153.56  2156.21  2161.55  2166.45
                             2168.18  2203.51  2377.15  2422.06  4213.14
                             4283.24  4286.81  4313.55  4314.62  4319.39
                             4320.81  4377.73  4380.13  4461.66  4462.75
                             4494.71  4495.42  4496.75  4497.51  4559.62
                             4560.78  4563.39  4563.59  4618.59  4647.03
                             5595.08

 Zero-point correction=                           0.336941 (Hartree/Particle)
 Thermal correction to Energy=                    0.355768
 Thermal correction to Enthalpy=                  0.356712
 Thermal correction to Gibbs Free Energy=         0.291058
 Sum of electronic and zero-point Energies=           -820.320926
 Sum of electronic and thermal Energies=              -820.302099
 Sum of electronic and thermal Enthalpies=            -820.301154
 Sum of electronic and thermal Free Energies=         -820.366809

                     E (Thermal)             CV                S
                      KCal/Mol        Cal/Mol-Kelvin    Cal/Mol-Kelvin
 Total                  223.248             73.170            138.181
 Electronic               0.000              0.000              0.000
 Translational            0.889              2.981             43.250
 Rotational               0.889              2.981             33.224
 Vibrational            221.470             67.209             61.707
 Vibration     1          0.593              1.984              5.951
 Vibration     2          0.596              1.975              4.621
 Vibration     3          0.598              1.969              4.180
 Vibration     4          0.600              1.964              3.926
 Vibration     5          0.613              1.919              2.876
 Vibration     6          0.625              1.880              2.439
 Vibration     7          0.631              1.861              2.286
 Vibration     8          0.635              1.850              2.202
 Vibration     9          0.639              1.837              2.113
 Vibration    10          0.641              1.829              2.067
 Vibration    11          0.658              1.778              1.798
 Vibration    12          0.659              1.773              1.777
 Vibration    13          0.670              1.740              1.641
 Vibration    14          0.670              1.740              1.638
 Vibration    15          0.681              1.709              1.528
 Vibration    16          0.682              1.703              1.510
 Vibration    17          0.685              1.694              1.481
 Vibration    18          0.690              1.681              1.439
 Vibration    19          0.697              1.659              1.375
 Vibration    20          0.701              1.648              1.345
 Vibration    21          0.727              1.576              1.167
 Vibration    22          0.764              1.475              0.971
 Vibration    23          0.766              1.470              0.962
 Vibration    24          0.767              1.467              0.958
 Vibration    25          0.809              1.361              0.796
 Vibration    26          0.828              1.314              0.734
 Vibration    27          0.832              1.306              0.724
 Vibration    28          0.840              1.287              0.701
 Vibration    29          0.858              1.243              0.651
 Vibration    30          0.870              1.218              0.623
 Vibration    31          0.910              1.129              0.534
 Vibration    32          0.936              1.076              0.486
 Vibration    33          0.951              1.046              0.462

                           ! Non-Optimized Parameters !
 Normal termination of Gaussian 16 at Mon May 20 23:53:37 2024.
