 Gaussian 16, Revision C.01,
 Gaussian 16:  ES64L-G16RevC.01  3-Jul-2019

 ----------------------------------------------------------
 # wb97xd def2TZVPP SCRF=(solvent=dichloromethane) opt freq
 ----------------------------------------------------------

 -------
 HZRhMeH
 -------
 Symbolic Z-matrix:
 Charge =  1 Multiplicity = 1

 SCF Done:  E(RwB97XD) =  -821.096384413     A.U. after   17 cycles
 SCF Done:  E(RwB97XD) =  -821.128514632     A.U. after   13 cycles
 SCF Done:  E(RwB97XD) =  -821.138958784     A.U. after   15 cycles
 SCF Done:  E(RwB97XD) =  -821.140575237     A.U. after   14 cycles
 SCF Done:  E(RwB97XD) =  -821.141495974     A.U. after   14 cycles
 SCF Done:  E(RwB97XD) =  -821.143213234     A.U. after   14 cycles
 SCF Done:  E(RwB97XD) =  -821.143965145     A.U. after   14 cycles
 SCF Done:  E(RwB97XD) =  -821.145061813     A.U. after   13 cycles
 SCF Done:  E(RwB97XD) =  -821.144741615     A.U. after   14 cycles
 SCF Done:  E(RwB97XD) =  -821.145357285     A.U. after   14 cycles
 SCF Done:  E(RwB97XD) =  -821.145363092     A.U. after   11 cycles
 SCF Done:  E(RwB97XD) =  -821.145363578     A.U. after    9 cycles
 SCF Done:  E(RwB97XD) =  -821.145363623     A.U. after    8 cycles
 SCF Done:  E(RwB97XD) =  -821.145363654     A.U. after    6 cycles
 Optimization completed.
    -- Stationary point found.
 Normal termination of Gaussian 16 at Fri Mar 29 04:45:09 2024.

 ----------------------------------------------------------------------
 #N Geom=AllCheck Guess=TCheck SCRF=Check GenChk RwB97XD/def2TZVPP Freq
 ----------------------------------------------------------------------

 Structure from the checkpoint file:  "HZRhMeH.chk"
 -------
 HZRhMeH
 -------
 Charge =  1 Multiplicity = 1

                         Standard orientation:
 ---------------------------------------------------------------------
 Center     Atomic      Atomic             Coordinates (Angstroms)
 Number     Number       Type             X           Y           Z
 ---------------------------------------------------------------------
      1          6           0        1.522498    1.154198   -0.241922
      2          6           0        1.507065   -1.179421   -0.244693
      3          6           0        2.885031    1.190487   -0.040585
      4          6           0        2.866113   -1.236377   -0.042879
      5          6           0        3.561188   -0.028208    0.066411
      6          1           0        3.415633    2.129408    0.036153
      7          1           0        3.394810   -2.174737    0.033955
      8          8           0        4.879117   -0.101863    0.276381
      9          7           0        0.884799   -0.006791   -0.326082
     10          6           0        0.616497    2.336444   -0.475184
     11          1           0        0.552864    2.478277   -1.554777
     12          1           0        1.022815    3.253428   -0.044383
     13          6           0        0.582386   -2.346139   -0.481302
     14          1           0        0.511210   -2.480884   -1.561344
     15          1           0        0.977015   -3.271215   -0.057187
     16          7           0       -0.774521    2.105406    0.025416
     17          7           0       -0.802482   -2.096646    0.027278
     18          6           0       -3.181017    0.018832    0.250512
     19          1           0       -3.319407    0.010657    1.341459
     20          1           0       -3.693898    0.905401   -0.133035
     21          1           0       -3.708214   -0.852443   -0.148200
     22          6           0       -1.691626    3.009976   -0.688530
     23          1           0       -2.691928    2.892104   -0.282831
     24          1           0       -1.376162    4.050171   -0.568992
     25          1           0       -1.704167    2.749754   -1.743367
     26          6           0       -0.825140    2.401681    1.472224
     27          1           0       -0.555261    3.443577    1.661328
     28          1           0       -1.832312    2.219586    1.838769
     29          1           0       -0.127978    1.756403    2.006699
     30          6           0       -1.735665   -2.990128   -0.679701
     31          1           0       -1.431920   -4.034030   -0.562265
     32          1           0       -2.731537   -2.859818   -0.266884
     33          1           0       -1.752475   -2.729904   -1.734481
     34          6           0       -0.847145   -2.390420    1.474866
     35          1           0       -1.849600   -2.195768    1.847826
     36          1           0       -0.588505   -3.435237    1.663433
     37          1           0       -0.138511   -1.753079    2.003665
     38          1           0       -1.494647    0.007422   -1.574192
     39         45           0       -1.153246    0.006082   -0.112304
     40          1           0        5.269619    0.772783    0.339710
 ---------------------------------------------------------------------

 SCF Done:  E(RwB97XD) =  -821.145363654     A.U. after    1 cycles

 The electronic state is 1-A.
 Alpha  occ. eigenvalues --  -19.32038 -14.52197 -14.52169 -14.48823 -10.40519
 Alpha  occ. eigenvalues --  -10.37602 -10.37451 -10.35728 -10.35638 -10.33515
 Alpha  occ. eigenvalues --  -10.33482 -10.32851 -10.32820 -10.32787 -10.32438
 Alpha  occ. eigenvalues --  -10.25149  -3.35286  -2.10533  -2.10285  -2.09772
 Alpha  occ. eigenvalues --   -1.21403  -1.11812  -1.08374  -1.07567  -0.94331
 Alpha  occ. eigenvalues --   -0.93567  -0.86461  -0.84515  -0.84266  -0.84070
 Alpha  occ. eigenvalues --   -0.77651  -0.76398  -0.75657  -0.73425  -0.73144
 Alpha  occ. eigenvalues --   -0.67469  -0.65050  -0.62327  -0.61827  -0.60717
 Alpha  occ. eigenvalues --   -0.60644  -0.59676  -0.59441  -0.58560  -0.56157
 Alpha  occ. eigenvalues --   -0.54669  -0.54006  -0.52960  -0.52820  -0.51573
 Alpha  occ. eigenvalues --   -0.51377  -0.50501  -0.49633  -0.49526  -0.48810
 Alpha  occ. eigenvalues --   -0.48384  -0.47918  -0.47006  -0.46695  -0.46107
 Alpha  occ. eigenvalues --   -0.45894  -0.44979  -0.42943  -0.39627  -0.38268
 Alpha  occ. eigenvalues --   -0.37465  -0.34774  -0.34107  -0.32433  -0.32184
 Alpha virt. eigenvalues --   -0.00324   0.01188   0.02280   0.04931   0.07120
 Alpha virt. eigenvalues --    0.08580   0.09264   0.10402   0.10899   0.12319
 Alpha virt. eigenvalues --    0.13049   0.13705   0.14294   0.14445   0.15188

 Mulliken charges:
               1
     1  C    0.073466
     2  C    0.096454
     3  C   -0.162729
     4  C   -0.177597
     5  C    0.277531
     6  H    0.121301
     7  H    0.132920
     8  O   -0.276128
     9  N   -0.146956
    10  C   -0.043031
    11  H    0.127482
    12  H    0.122313
    13  C   -0.039706
    14  H    0.127238
    15  H    0.122846
    16  N   -0.040033
    17  N   -0.039538
    18  C   -0.617495
    19  H    0.102832
    20  H    0.088089
    21  H    0.088481
    22  C   -0.163063
    23  H    0.108217
    24  H    0.115335
    25  H    0.112364
    26  C   -0.167395
    27  H    0.110312
    28  H    0.123141
    29  H    0.118834
    30  C   -0.163125
    31  H    0.115442
    32  H    0.107993
    33  H    0.112502
    34  C   -0.167665
    35  H    0.122869
    36  H    0.110672
    37  H    0.118994
    38  H   -0.049912
    39  Rh   0.177723
    40  H    0.219022
 Sum of Mulliken charges =   1.00000

 Dipole moment (field-independent basis, Debye):
    X=              5.1217    Y=              1.6249    Z=              1.4133  Tot=              5.5560
 Quadrupole moment (field-independent basis, Debye-Ang):
   XX=            -98.5538   YY=            -75.3230   ZZ=           -111.0255
   XY=              9.3000   XZ=             -0.4760   YZ=              0.6176

  Exact polarizability:     318.398       1.128     274.611       2.465       0.164     187.381
 Approx polarizability:     251.810       0.463     229.933       5.054       0.075     183.177

                      1                      2                      3
                      A                      A                      A
 Frequencies --     56.6305                63.3207                89.8201
 Red. masses --      4.2572                 1.7243                 1.5763
 Frc consts  --      0.0080                 0.0041                 0.0075
 IR Inten    --      0.4147                 0.2778                 0.3103

                      4                      5                      6
                      A                      A                      A
 Frequencies --     92.8783               149.7775               182.1592
 Red. masses --      2.7418                 2.6958                 3.7909
 Frc consts  --      0.0139                 0.0356                 0.0741
 IR Inten    --      4.9248                 0.6409                 0.4172

                      7                      8                      9
                      A                      A                      A
 Frequencies --    186.6657               197.6885               208.0856
 Red. masses --      3.2360                 2.7088                 4.0697
 Frc consts  --      0.0664                 0.0624                 0.1038
 IR Inten    --      1.2981                 2.7561                 0.6060

                     10                     11                     12
                      A                      A                      A
 Frequencies --    213.5737               240.7022               256.9611
 Red. masses --      3.3402                 3.4771                 4.9797
 Frc consts  --      0.0898                 0.1187                 0.1937
 IR Inten    --      2.0616                 3.6950                 1.6097

                     13                     14                     15
                      A                      A                      A
 Frequencies --    262.3665               279.1123               281.0026
 Red. masses --      2.7243                 2.8078                 2.6275
 Frc consts  --      0.1105                 0.1289                 0.1222
 IR Inten    --      1.6188                 3.9705                 1.9513

                     16                     17                     18
                      A                      A                      A
 Frequencies --    283.2058               292.7257               295.6637
 Red. masses --      1.3271                 3.2658                 1.3537
 Frc consts  --      0.0627                 0.1649                 0.0697
 IR Inten    --      1.5581                 2.7531                 3.4444

                     19                     20                     21
                      A                      A                      A
 Frequencies --    319.6053               329.5876               347.3826
 Red. masses --      1.1311                 1.1409                 3.4800
 Frc consts  --      0.0681                 0.0730                 0.2474
 IR Inten    --      2.5880                 1.5088                 8.2609

                     22                     23                     24
                      A                      A                      A
 Frequencies --    392.0067               404.2762               450.3938
 Red. masses --      2.3508                 2.2513                 2.4136
 Frc consts  --      0.2128                 0.2168                 0.2885
 IR Inten    --      3.2062                 0.5274                17.7792

                     25                     26                     27
                      A                      A                      A
 Frequencies --    461.5981               481.6077               481.8962
 Red. masses --      1.1348                 1.2513                 1.8608
 Frc consts  --      0.1425                 0.1710                 0.2546
 IR Inten    --    139.8959                 3.8991                14.9858

                     28                     29                     30
                      A                      A                      A
 Frequencies --    489.6419               507.2056               517.0751
 Red. masses --      2.8390                 2.6817                 3.0205
 Frc consts  --      0.4010                 0.4065                 0.4758
 IR Inten    --     18.8748                 9.1112                20.0389

                     31                     32                     33
                      A                      A                      A
 Frequencies --    537.7756               560.3855               591.5651
 Red. masses --      4.0949                 3.0928                 6.9948
 Frc consts  --      0.6977                 0.5722                 1.4422
 IR Inten    --     42.8091                 7.4478                 0.7162

                     34                     35                     36
                      A                      A                      A
 Frequencies --    618.9662               627.8568               696.6629
 Red. masses --      1.1086                 3.7181                 5.3972
 Frc consts  --      0.2502                 0.8636                 1.5434
 IR Inten    --      4.8979                 0.7704                 2.0205

                     37                     38                     39
                      A                      A                      A
 Frequencies --    721.8165               743.8123               776.4687
 Red. masses --      3.2767                 1.4176                 2.6863
 Frc consts  --      1.0059                 0.4621                 0.9542
 IR Inten    --      5.7002                10.1340                 1.0330

                     40                     41                     42
                      A                      A                      A
 Frequencies --    787.4949               872.4111               878.3811
 Red. masses --      1.2526                 2.2243                 2.7238
 Frc consts  --      0.4577                 0.9975                 1.2382
 IR Inten    --      1.1930                51.7446                37.4652

                     43                     44                     45
                      A                      A                      A
 Frequencies --    903.0533               910.4807               969.8419
 Red. masses --      1.9703                 1.8051                 2.5580
 Frc consts  --      0.9467                 0.8816                 1.4176
 IR Inten    --     46.0510                37.2355                35.7533

                     46                     47                     48
                      A                      A                      A
 Frequencies --    994.5167              1002.0608              1014.8504
 Red. masses --      2.1629                 2.9561                 2.5141
 Frc consts  --      1.2604                 1.7489                 1.5256
 IR Inten    --     16.7124                 8.4334                16.5405

                     49                     50                     51
                      A                      A                      A
 Frequencies --   1025.2016              1057.0109              1060.7119
 Red. masses --      2.6521                 2.6356                 1.8959
 Frc consts  --      1.6423                 1.7350                 1.2568
 IR Inten    --     46.1695                19.8646                 2.2470

                     52                     53                     54
                      A                      A                      A
 Frequencies --   1061.1155              1079.0194              1133.9067
 Red. masses --      1.6891                 5.9445                 1.2490
 Frc consts  --      1.1206                 4.0777                 0.9462
 IR Inten    --     18.5475                99.5847                 0.3613

                     55                     56                     57
                      A                      A                      A
 Frequencies --   1135.9279              1180.3855              1189.6975
 Red. masses --      1.2492                 1.4870                 1.5353
 Frc consts  --      0.9497                 1.2207                 1.2803
 IR Inten    --      1.2266               169.6918                 8.6343

                     58                     59                     60
                      A                      A                      A
 Frequencies --   1192.2085              1205.3237              1224.3713
 Red. masses --      1.4882                 1.4806                 1.7509
 Frc consts  --      1.2463                 1.2674                 1.5464
 IR Inten    --     27.1363                 4.4672                35.6422

                     61                     62                     63
                      A                      A                      A
 Frequencies --   1230.2043              1246.4618              1247.9160
 Red. masses --      1.8824                 1.2167                 1.6609
 Frc consts  --      1.6785                 1.1138                 1.5239
 IR Inten    --      8.9103                 9.9975                48.1666

                     64                     65                     66
                      A                      A                      A
 Frequencies --   1281.1842              1285.5564              1319.2463
 Red. masses --      1.9523                 1.9905                 1.4871
 Frc consts  --      1.8881                 1.9382                 1.5249
 IR Inten    --      2.2583                 1.5702                14.4114

                     67                     68                     69
                      A                      A                      A
 Frequencies --   1322.6531              1350.8871              1383.9385
 Red. masses --      1.4440                 2.7711                 1.7971
 Frc consts  --      1.4883                 2.9794                 2.0280
 IR Inten    --      3.1535                64.3336                55.4532

                     70                     71                     72
                      A                      A                      A
 Frequencies --   1406.0488              1424.3673              1448.9741
 Red. masses --      1.5915                 3.8778                 1.0745
 Frc consts  --      1.8538                 4.6353                 1.3292
 IR Inten    --     53.0399               135.6736                 1.8199

                     73                     74                     75
                      A                      A                      A
 Frequencies --   1454.2691              1457.4269              1471.3872
 Red. masses --      1.1447                 1.1388                 1.0825
 Frc consts  --      1.4264                 1.4252                 1.3808
 IR Inten    --      1.6765                 0.3496                16.6904

                     76                     77                     78
                      A                      A                      A
 Frequencies --   1473.1748              1473.4156              1487.4989
 Red. masses --      1.1164                 1.1137                 1.1088
 Frc consts  --      1.4275                 1.4245                 1.4454
 IR Inten    --      3.0706                 9.1473                 4.3770

                     79                     80                     81
                      A                      A                      A
 Frequencies --   1490.9641              1493.6917              1494.5512
 Red. masses --      1.0819                 1.0623                 1.0972
 Frc consts  --      1.4170                 1.3964                 1.4439
 IR Inten    --      1.4713                 0.8597                10.3766

                     82                     83                     84
                      A                      A                      A
 Frequencies --   1500.4329              1503.6097              1509.2867
 Red. masses --      1.0587                 1.0794                 1.1101
 Frc consts  --      1.4043                 1.4379                 1.4899
 IR Inten    --      3.2895                29.3292                79.4720

                     85                     86                     87
                      A                      A                      A
 Frequencies --   1510.5408              1514.7226              1528.6223
 Red. masses --      1.1179                 2.3668                 1.0653
 Frc consts  --      1.5028                 3.1995                 1.4666
 IR Inten    --     17.9692               124.2600                 6.4001

                     88                     89                     90
                      A                      A                      A
 Frequencies --   1532.9259              1541.5760              1664.7249
 Red. masses --      1.0711                 3.8053                 7.9998
 Frc consts  --      1.4829                 5.3280                13.0622
 IR Inten    --     14.5988                 7.6526               186.9878

                     91                     92                     93
                      A                      A                      A
 Frequencies --   1684.5402              2255.0793              2982.2529
 Red. masses --      6.7881                 1.0177                 1.0417
 Frc consts  --     11.3492                 3.0493                 5.4586
 IR Inten    --    395.2907                92.9411                96.1624

                     94                     95                     96
                      A                      A                      A
 Frequencies --   3045.9031              3047.0142              3047.1401
 Red. masses --      1.0439                 1.0415                 1.0380
 Frc consts  --      5.7063                 5.6972                 5.6786
 IR Inten    --     82.4333                38.7259                47.9856

                     97                     98                     99
                      A                      A                      A
 Frequencies --   3048.0722              3062.5230              3073.1763
 Red. masses --      1.0396                 1.0892                 1.0599
 Frc consts  --      5.6905                 6.0188                 5.8981
 IR Inten    --     23.3215                92.1735                31.5495

                    100                    101                    102
                      A                      A                      A
 Frequencies --   3073.7115              3088.3733              3124.4552
 Red. masses --      1.0600                 1.1017                 1.1053
 Frc consts  --      5.9002                 6.1909                 6.3573
 IR Inten    --     14.4968                85.0549                18.7372

                    103                    104                    105
                      A                      A                      A
 Frequencies --   3125.0875              3128.7095              3129.3288
 Red. masses --      1.1051                 1.1010                 1.1005
 Frc consts  --      6.3589                 6.3497                 6.3496
 IR Inten    --     11.3776                34.1594                 1.9905

                    106                    107                    108
                      A                      A                      A
 Frequencies --   3146.6711              3146.9734              3166.5313
 Red. masses --      1.0920                 1.0923                 1.1046
 Frc consts  --      6.3707                 6.3737                 6.5255
 IR Inten    --      9.9256                12.4700                 1.6301

                    109                    110                    111
                      A                      A                      A
 Frequencies --   3166.6146              3185.8649              3186.2645
 Red. masses --      1.1046                 1.1061                 1.1060
 Frc consts  --      6.5262                 6.6148                 6.6157
 IR Inten    --     15.2177                10.5379                11.6618

                    112                    113                    114
                      A                      A                      A
 Frequencies --   3224.1353              3240.6900              3877.4828
 Red. masses --      1.0936                 1.0940                 1.0663
 Frc consts  --      6.6980                 6.7692                 9.4458
 IR Inten    --      3.2813                 0.5795               206.7110

 - Thermochemistry -
 -------------------
 Temperature   298.150 Kelvin.  Pressure   1.00000 Atm.
 Atom     1 has atomic number  6 and mass  12.00000

 Molecular mass:   328.08891 amu.
 Principal axes and moments of inertia in atomic units:
                           1         2         3
     Eigenvalues --  3353.114585028.841837583.02841
           X            0.99995   0.00953  -0.00216
           Y           -0.00953   0.99995   0.00033
           Z            0.00217  -0.00031   1.00000
 This molecule is an asymmetric top.
 Rotational symmetry number  1.
 Warning -- assumption of classical behavior for rotation
           may cause significant error
 Rotational temperatures (Kelvin)      0.02583     0.01722     0.01142
 Rotational constants (GHZ):           0.53823     0.35888     0.23800
 Zero-point vibrational energy     914394.1 (Joules/Mol)
                                  218.54543 (Kcal/Mol)
 Warning -- explicit consideration of  34 degrees of freedom as
           vibrations may cause significant error
 Vibrational temperatures:     81.48    91.10   129.23   133.63   215.50
          (Kelvin)            262.09   268.57   284.43   299.39   307.28
                              346.32   369.71   377.49   401.58   404.30
                              407.47   421.17   425.39   459.84   474.20
                              499.81   564.01   581.66   648.02   664.14
                              692.93   693.34   704.49   729.76   743.96
                              773.74   806.27   851.13   890.55   903.35
                             1002.34  1038.53  1070.18  1117.17  1133.03
                             1255.21  1263.79  1299.29  1309.98  1395.39
                             1430.89  1441.74  1460.14  1475.04  1520.80
                             1526.13  1526.71  1552.47  1631.44  1634.35
                             1698.31  1711.71  1715.32  1734.19  1761.60
                             1769.99  1793.38  1795.47  1843.34  1849.63
                             1898.10  1903.00  1943.63  1991.18  2022.99
                             2049.35  2084.75  2092.37  2096.91  2117.00
                             2119.57  2119.92  2140.18  2145.16  2149.09
                             2150.33  2158.79  2163.36  2171.53  2173.33
                             2179.35  2199.35  2205.54  2217.98  2395.17
                             2423.68  3244.56  4290.80  4382.38  4383.97
                             4384.15  4385.50  4406.29  4421.62  4422.39
                             4443.48  4495.39  4496.30  4501.52  4502.41
                             4527.36  4527.79  4555.93  4556.05  4583.75
                             4584.32  4638.81  4662.63  5578.83

 Zero-point correction=                           0.348274 (Hartree/Particle)
 Thermal correction to Energy=                    0.366949
 Thermal correction to Enthalpy=                  0.367893
 Thermal correction to Gibbs Free Energy=         0.303665
 Sum of electronic and zero-point Energies=           -820.797089
 Sum of electronic and thermal Energies=              -820.778415
 Sum of electronic and thermal Enthalpies=            -820.777471
 Sum of electronic and thermal Free Energies=         -820.841698

                     E (Thermal)             CV                S
                      KCal/Mol        Cal/Mol-Kelvin    Cal/Mol-Kelvin
 Total                  230.264             74.259            135.179
 Electronic               0.000              0.000              0.000
 Translational            0.889              2.981             43.260
 Rotational               0.889              2.981             33.214
 Vibrational            228.486             68.297             58.706
 Vibration     1          0.596              1.975              4.571
 Vibration     2          0.597              1.972              4.351
 Vibration     3          0.602              1.956              3.664
 Vibration     4          0.602              1.954              3.599
 Vibration     5          0.618              1.903              2.675
 Vibration     6          0.630              1.864              2.306
 Vibration     7          0.632              1.858              2.261
 Vibration     8          0.637              1.843              2.155
 Vibration     9          0.641              1.828              2.060
 Vibration    10          0.644              1.820              2.013
 Vibration    11          0.658              1.778              1.798
 Vibration    12          0.667              1.751              1.682
 Vibration    13          0.670              1.742              1.646
 Vibration    14          0.679              1.712              1.539
 Vibration    15          0.681              1.709              1.528
 Vibration    16          0.682              1.705              1.514
 Vibration    17          0.688              1.687              1.458
 Vibration    18          0.690              1.682              1.441
 Vibration    19          0.706              1.636              1.312
 Vibration    20          0.712              1.616              1.262
 Vibration    21          0.725              1.581              1.178
 Vibration    22          0.759              1.487              0.992
 Vibration    23          0.769              1.461              0.947
 Vibration    24          0.809              1.360              0.795
 Vibration    25          0.819              1.335              0.761
 Vibration    26          0.838              1.291              0.706
 Vibration    27          0.838              1.290              0.705
 Vibration    28          0.845              1.273              0.685
 Vibration    29          0.862              1.234              0.640
 Vibration    30          0.872              1.212              0.617
 Vibration    31          0.893              1.166              0.570
 Vibration    32          0.916              1.117              0.523
 Vibration    33          0.949              1.050              0.464
 Vibration    34          0.979              0.992              0.418

                           ! Non-Optimized Parameters !
 Normal termination of Gaussian 16 at Fri Mar 29 12:28:39 2024.
