 Gaussian 16, Revision C.01,
 Gaussian 16:  ES64L-G16RevC.01  3-Jul-2019

 ----------------------------------------------------------
 # wb97xd def2TZVPP SCRF=(solvent=dichloromethane) opt freq
 ----------------------------------------------------------

 ----
 HZRh
 ----
 Symbolic Z-matrix:
 Charge =  1 Multiplicity = 1

 SCF Done:  E(RwB97XD) =  -780.579224593     A.U. after   21 cycles
 SCF Done:  E(RwB97XD) =  -780.610803556     A.U. after   15 cycles
 SCF Done:  E(RwB97XD) =  -780.620494401     A.U. after   16 cycles
 SCF Done:  E(RwB97XD) =  -780.621751289     A.U. after   15 cycles
 SCF Done:  E(RwB97XD) =  -780.622097332     A.U. after   14 cycles
 SCF Done:  E(RwB97XD) =  -780.622148198     A.U. after   14 cycles
 SCF Done:  E(RwB97XD) =  -780.622154879     A.U. after   12 cycles
 SCF Done:  E(RwB97XD) =  -780.622158165     A.U. after   11 cycles
 SCF Done:  E(RwB97XD) =  -780.622158577     A.U. after   10 cycles
 Optimization completed.
    -- Stationary point found.
 Normal termination of Gaussian 16 at Thu Mar 28 22:44:44 2024.

 ----------------------------------------------------------------------
 #N Geom=AllCheck Guess=TCheck SCRF=Check GenChk RwB97XD/def2TZVPP Freq
 ----------------------------------------------------------------------

 Structure from the checkpoint file:  "HZRh.chk"
 ----
 HZRh
 ----
 Charge =  1 Multiplicity = 1

                         Standard orientation:
 ---------------------------------------------------------------------
 Center     Atomic      Atomic             Coordinates (Angstroms)
 Number     Number       Type             X           Y           Z
 ---------------------------------------------------------------------
      1          6           0        1.298380    1.148773   -0.185365
      2          6           0        1.267914   -1.186641   -0.190079
      3          6           0        2.669314    1.168209   -0.055189
      4          6           0        2.634858   -1.244437   -0.059010
      5          6           0        3.346767   -0.047978    0.023854
      6          1           0        3.203527    2.107849   -0.023842
      7          1           0        3.155072   -2.190322   -0.028840
      8          8           0        4.676212   -0.130219    0.164374
      9          7           0        0.629440   -0.008732   -0.216458
     10          6           0        0.426368    2.348523   -0.426063
     11          1           0        0.388431    2.497610   -1.506273
     12          1           0        0.847150    3.254175    0.017241
     13          6           0        0.361683   -2.359215   -0.436748
     14          1           0        0.311654   -2.495998   -1.518079
     15          1           0        0.761050   -3.280216   -0.005477
     16          7           0       -0.964817    2.120634    0.046325
     17          7           0       -1.019225   -2.097318    0.047954
     18          6           0       -1.895968    2.950319   -0.732919
     19          1           0       -2.905730    2.789916   -0.360713
     20          1           0       -1.650657    4.013524   -0.641467
     21          1           0       -1.853613    2.657053   -1.779043
     22          6           0       -1.058782    2.491027    1.472195
     23          1           0       -0.873449    3.562453    1.602187
     24          1           0       -2.052821    2.254609    1.844249
     25          1           0       -0.326747    1.928415    2.046834
     26          6           0       -1.975774   -2.906501   -0.721076
     27          1           0       -1.752792   -3.974711   -0.631186
     28          1           0       -2.978357   -2.724217   -0.339541
     29          1           0       -1.937171   -2.615192   -1.767927
     30          6           0       -1.107450   -2.464004    1.475095
     31          1           0       -2.092008   -2.204824    1.856941
     32          1           0       -0.945161   -3.539232    1.604464
     33          1           0       -0.356866   -1.917982    2.041785
     34         45           0       -1.283239    0.015235   -0.090282
     35          1           0        5.072905    0.742707    0.203464
 ---------------------------------------------------------------------

 SCF Done:  E(RwB97XD) =  -780.622158577     A.U. after    1 cycles

 The electronic state is 1-A.
 Alpha  occ. eigenvalues --  -19.31592 -14.50814 -14.50775 -14.50607 -10.39821
 Alpha  occ. eigenvalues --  -10.37098 -10.36962 -10.35145 -10.35051 -10.32662
 Alpha  occ. eigenvalues --  -10.32654 -10.32627 -10.32611 -10.32352 -10.32005
 Alpha  occ. eigenvalues --   -3.29238  -2.05829  -2.05425  -2.01901  -1.20871
 Alpha  occ. eigenvalues --   -1.11562  -1.07630  -1.06856  -0.93937  -0.93413
 Alpha  occ. eigenvalues --   -0.86102  -0.83788  -0.83602  -0.83572  -0.77273
 Alpha  occ. eigenvalues --   -0.75987  -0.72883  -0.72606  -0.67028  -0.64655
 Alpha  occ. eigenvalues --   -0.61815  -0.61421  -0.60235  -0.60061  -0.59011
 Alpha  occ. eigenvalues --   -0.58685  -0.58044  -0.55848  -0.54121  -0.53495
 Alpha  occ. eigenvalues --   -0.52374  -0.52222  -0.51293  -0.50747  -0.49845
 Alpha  occ. eigenvalues --   -0.49106  -0.48885  -0.48059  -0.47767  -0.47087
 Alpha  occ. eigenvalues --   -0.46354  -0.45726  -0.42723  -0.38244  -0.38084
 Alpha  occ. eigenvalues --   -0.36869  -0.30822  -0.28517  -0.27555  -0.26207
 Alpha virt. eigenvalues --    0.00814   0.01649   0.02625   0.06622   0.06995
 Alpha virt. eigenvalues --    0.08509   0.09419   0.10945   0.12539   0.13586
 Alpha virt. eigenvalues --    0.13819   0.14077   0.14296   0.14873   0.15730

 Mulliken charges:
               1
     1  C    0.109320
     2  C    0.132616
     3  C   -0.173630
     4  C   -0.186592
     5  C    0.266914
     6  H    0.118613
     7  H    0.130263
     8  O   -0.282609
     9  N   -0.160464
    10  C   -0.064395
    11  H    0.124300
    12  H    0.118729
    13  C   -0.061441
    14  H    0.124132
    15  H    0.119184
    16  N   -0.111510
    17  N   -0.111584
    18  C   -0.159639
    19  H    0.109420
    20  H    0.111299
    21  H    0.106707
    22  C   -0.155023
    23  H    0.103262
    24  H    0.110885
    25  H    0.118573
    26  C   -0.159668
    27  H    0.111246
    28  H    0.109213
    29  H    0.106630
    30  C   -0.155119
    31  H    0.110701
    32  H    0.103517
    33  H    0.118639
    34  Rh   0.000142
    35  H    0.217370
 Sum of Mulliken charges =   1.00000

 Dipole moment (field-independent basis, Debye):
    X=             -0.0027    Y=              1.6601    Z=              0.5288  Tot=              1.7423
 Quadrupole moment (field-independent basis, Debye-Ang):
   XX=            -77.4889   YY=            -71.0263   ZZ=           -105.8080
   XY=              8.8910   XZ=             -1.3099   YZ=              0.3941

  Exact polarizability:     292.393       1.163     263.511       6.962       0.065     190.129
 Approx polarizability:     234.187       0.420     214.501       4.957       0.048     170.252

                      1                      2                      3
                      A                      A                      A
 Frequencies --     57.7275                64.1754                86.3888
 Red. masses --      3.2770                 3.3606                 4.5836
 Frc consts  --      0.0064                 0.0082                 0.0202
 IR Inten    --      0.9556                 2.8800                 0.5720

                      4                      5                      6
                      A                      A                      A
 Frequencies --    164.2927               179.7944               187.0044
 Red. masses --      3.4017                 2.9167                 3.3188
 Frc consts  --      0.0541                 0.0556                 0.0684
 IR Inten    --      5.9927                 0.7780                 5.6663

                      7                      8                      9
                      A                      A                      A
 Frequencies --    201.0022               234.9260               250.0147
 Red. masses --      3.2782                 3.3623                 3.8950
 Frc consts  --      0.0780                 0.1093                 0.1434
 IR Inten    --      5.1508                 2.4255                 1.3672

                     10                     11                     12
                      A                      A                      A
 Frequencies --    260.3781               266.8058               269.4338
 Red. masses --      5.7959                 4.9779                 3.2446
 Frc consts  --      0.2315                 0.2088                 0.1388
 IR Inten    --      4.5834                 4.1878                 4.7201

                     13                     14                     15
                      A                      A                      A
 Frequencies --    275.6178               277.8311               288.3489
 Red. masses --      1.1011                 1.1496                 4.1343
 Frc consts  --      0.0493                 0.0523                 0.2025
 IR Inten    --      0.4109                 0.5240                 5.9455

                     16                     17                     18
                      A                      A                      A
 Frequencies --    307.7531               312.3611               356.8541
 Red. masses --      1.0909                 1.1305                 4.7018
 Frc consts  --      0.0609                 0.0650                 0.3528
 IR Inten    --      0.2869                 0.6522                 0.0285

                     19                     20                     21
                      A                      A                      A
 Frequencies --    396.3161               406.4637               414.0393
 Red. masses --      2.1516                 2.2699                 1.2015
 Frc consts  --      0.1991                 0.2210                 0.1214
 IR Inten    --     17.1190                 0.2063               127.2593

                     22                     23                     24
                      A                      A                      A
 Frequencies --    451.6100               480.6080               493.9262
 Red. masses --      2.5669                 2.6418                 3.0065
 Frc consts  --      0.3084                 0.3595                 0.4322
 IR Inten    --      8.2939                18.8874                 4.1809

                     25                     26                     27
                      A                      A                      A
 Frequencies --    503.0895               523.0011               555.2021
 Red. masses --      2.7036                 3.1608                 3.2929
 Frc consts  --      0.4032                 0.5094                 0.5980
 IR Inten    --      2.5149                10.7188                10.8609

                     28                     29                     30
                      A                      A                      A
 Frequencies --    610.3277               618.6372               695.9240
 Red. masses --      6.4765                 4.1656                 5.5660
 Frc consts  --      1.4214                 0.9393                 1.5882
 IR Inten    --     27.0559                 5.4379                 1.6750

                     31                     32                     33
                      A                      A                      A
 Frequencies --    716.3531               752.7919               874.2816
 Red. masses --      3.5736                 3.2418                 1.9513
 Frc consts  --      1.0805                 1.0824                 0.8788
 IR Inten    --      7.4206                 1.3337                33.0448

                     34                     35                     36
                      A                      A                      A
 Frequencies --    880.9483               902.0393               910.4844
 Red. masses --      2.6665                 2.2053                 1.8261
 Frc consts  --      1.2193                 1.0572                 0.8919
 IR Inten    --     22.2859                51.7708                43.5696

                     37                     38                     39
                      A                      A                      A
 Frequencies --    977.2093               995.0280              1014.5740
 Red. masses --      2.4672                 2.2046                 2.5970
 Frc consts  --      1.3882                 1.2860                 1.5750
 IR Inten    --     18.1751                18.9068                43.1039

                     40                     41                     42
                      A                      A                      A
 Frequencies --   1015.8262              1037.5904              1053.3057
 Red. masses --      2.7608                 2.5016                 2.0697
 Frc consts  --      1.6785                 1.5868                 1.3529
 IR Inten    --      5.5983                26.2827                16.9610

                     43                     44                     45
                      A                      A                      A
 Frequencies --   1056.3259              1058.1994              1099.6216
 Red. masses --      1.6367                 2.2033                 6.3329
 Frc consts  --      1.0760                 1.4536                 4.5117
 IR Inten    --     15.2563                 6.9614                 2.7809

                     46                     47                     48
                      A                      A                      A
 Frequencies --   1132.7106              1136.0813              1179.9158
 Red. masses --      1.2688                 1.2670                 1.5052
 Frc consts  --      0.9591                 0.9635                 1.2347
 IR Inten    --      1.8033                 3.3034               217.5070

                     49                     50                     51
                      A                      A                      A
 Frequencies --   1187.9403              1192.1226              1205.8099
 Red. masses --      1.5831                 1.5404                 1.5087
 Frc consts  --      1.3163                 1.2898                 1.2924
 IR Inten    --      6.3613                43.4364                 1.1640

                     52                     53                     54
                      A                      A                      A
 Frequencies --   1219.7852              1222.3713              1245.4623
 Red. masses --      1.7052                 1.8338                 1.6545
 Frc consts  --      1.4948                 1.6144                 1.5121
 IR Inten    --     27.3428                 5.2422                64.5710

                     55                     56                     57
                      A                      A                      A
 Frequencies --   1285.8129              1290.8652              1320.7854
 Red. masses --      2.0797                 2.1437                 1.7639
 Frc consts  --      2.0259                 2.1047                 1.8130
 IR Inten    --      3.8079                 8.8473                23.4800

                     58                     59                     60
                      A                      A                      A
 Frequencies --   1322.8905              1340.8493              1383.3096
 Red. masses --      1.4814                 2.2625                 1.8110
 Frc consts  --      1.5274                 2.3967                 2.0418
 IR Inten    --     14.3503                62.6273                66.4398

                     61                     62                     63
                      A                      A                      A
 Frequencies --   1404.2620              1419.6414              1453.6684
 Red. masses --      1.4644                 3.9866                 1.1569
 Frc consts  --      1.7013                 4.7338                 1.4404
 IR Inten    --     43.5049                41.9678                 3.0735

                     64                     65                     66
                      A                      A                      A
 Frequencies --   1454.5106              1472.2789              1474.0693
 Red. masses --      1.1566                 1.1321                 1.1235
 Frc consts  --      1.4416                 1.4458                 1.4383
 IR Inten    --      4.3511                12.1162                 9.4340

                     67                     68                     69
                      A                      A                      A
 Frequencies --   1484.3884              1485.6795              1487.3694
 Red. masses --      1.0650                 1.0509                 1.1379
 Frc consts  --      1.3826                 1.3667                 1.4832
 IR Inten    --      3.9426                 1.1899                 7.4486

                     70                     71                     72
                      A                      A                      A
 Frequencies --   1488.7492              1498.9794              1499.7636
 Red. masses --      1.1313                 1.0611                 1.0683
 Frc consts  --      1.4773                 1.4047                 1.4157
 IR Inten    --      9.0878                 9.8993                42.7242

                     73                     74                     75
                      A                      A                      A
 Frequencies --   1505.7690              1506.4093              1507.2100
 Red. masses --      1.2109                 1.1565                 1.0686
 Frc consts  --      1.6176                 1.5462                 1.4302
 IR Inten    --    111.3670                41.1659                30.9911

                     76                     77                     78
                      A                      A                      A
 Frequencies --   1508.1460              1510.8911              1542.6694
 Red. masses --      1.0794                 1.7600                 3.9071
 Frc consts  --      1.4465                 2.3672                 5.4784
 IR Inten    --     14.2102               180.5618                12.1722

                     79                     80                     81
                      A                      A                      A
 Frequencies --   1652.3967              1693.3454              3027.3791
 Red. masses --      7.5673                 6.8169                 1.0459
 Frc consts  --     12.1736                11.5167                 5.6479
 IR Inten    --    142.1901               303.7177                42.3432

                     82                     83                     84
                      A                      A                      A
 Frequencies --   3028.4200              3028.7786              3030.3783
 Red. masses --      1.0451                 1.0458                 1.0462
 Frc consts  --      5.6474                 5.6522                 5.6603
 IR Inten    --     24.9587               189.9317                53.1714

                     85                     86                     87
                      A                      A                      A
 Frequencies --   3063.5793              3064.5961              3114.8176
 Red. masses --      1.0605                 1.0603                 1.1044
 Frc consts  --      5.8641                 5.8671                 6.3130
 IR Inten    --     33.3220                23.7990                 9.8776

                     88                     89                     90
                      A                      A                      A
 Frequencies --   3115.8242              3127.4036              3127.4944
 Red. masses --      1.1043                 1.0909                 1.0908
 Frc consts  --      6.3167                 6.2862                 6.2864
 IR Inten    --      8.8411                13.9310                14.3670

                     91                     92                     93
                      A                      A                      A
 Frequencies --   3131.5686              3132.3090              3166.3861
 Red. masses --      1.0882                 1.0884                 1.1060
 Frc consts  --      6.2876                 6.2917                 6.5333
 IR Inten    --     21.9458                25.4892                 9.6470

                     94                     95                     96
                      A                      A                      A
 Frequencies --   3166.5330              3171.5956              3172.4104
 Red. masses --      1.1061                 1.1058                 1.1058
 Frc consts  --      6.5346                 6.5539                 6.5571
 IR Inten    --     14.3979                15.6943                15.6467

                     97                     98                     99
                      A                      A                      A
 Frequencies --   3221.2665              3240.0930              3880.2704
 Red. masses --      1.0937                 1.0936                 1.0664
 Frc consts  --      6.6865                 6.7645                 9.4602
 IR Inten    --      3.9539                 0.7821               216.6776

 - Thermochemistry -
 -------------------
 Temperature   298.150 Kelvin.  Pressure   1.00000 Atm.
 Atom     1 has atomic number  6 and mass  12.00000

 Molecular mass:   312.05761 amu.
 Principal axes and moments of inertia in atomic units:
                           1         2         3
     Eigenvalues --  3326.985444322.400596901.57125
           X            0.99983   0.01815  -0.00257
           Y           -0.01815   0.99984   0.00021
           Z            0.00257  -0.00016   1.00000
 This molecule is an asymmetric top.
 Rotational symmetry number  1.
 Warning -- assumption of classical behavior for rotation
           may cause significant error
 Rotational temperatures (Kelvin)      0.02603     0.02004     0.01255
 Rotational constants (GHZ):           0.54246     0.41753     0.26150
 Zero-point vibrational energy     797086.4 (Joules/Mol)
                                  190.50823 (Kcal/Mol)
 Warning -- explicit consideration of  29 degrees of freedom as
           vibrations may cause significant error
 Vibrational temperatures:     83.06    92.33   124.29   236.38   258.68
          (Kelvin)            269.06   289.20   338.01   359.72   374.63
                              383.87   387.66   396.55   399.74   414.87
                              442.79   449.42   513.43   570.21   584.81
                              595.71   649.77   691.49   710.65   723.83
                              752.48   798.81   878.13   890.08  1001.28
                             1030.67  1083.10  1257.90  1267.49  1297.83
                             1309.98  1405.99  1431.62  1459.75  1461.55
                             1492.86  1515.47  1519.82  1522.51  1582.11
                             1629.72  1634.57  1697.64  1709.18  1715.20
                             1734.89  1755.00  1758.72  1791.94  1850.00
                             1857.27  1900.32  1903.34  1929.18  1990.27
                             2020.42  2042.55  2091.50  2092.72  2118.28
                             2120.86  2135.70  2137.56  2139.99  2141.98
                             2156.70  2157.83  2166.47  2167.39  2168.54
                             2169.89  2173.84  2219.56  2377.43  2436.35
                             4355.72  4357.22  4357.74  4360.04  4407.81
                             4409.27  4481.53  4482.98  4499.64  4499.77
                             4505.63  4506.69  4555.72  4555.93  4563.22
                             4564.39  4634.68  4661.77  5582.84

 Zero-point correction=                           0.303594 (Hartree/Particle)
 Thermal correction to Energy=                    0.319770
 Thermal correction to Enthalpy=                  0.320714
 Thermal correction to Gibbs Free Energy=         0.261149
 Sum of electronic and zero-point Energies=           -780.318564
 Sum of electronic and thermal Energies=              -780.302389
 Sum of electronic and thermal Enthalpies=            -780.301445
 Sum of electronic and thermal Free Energies=         -780.361010

                     E (Thermal)             CV                S
                      KCal/Mol        Cal/Mol-Kelvin    Cal/Mol-Kelvin
 Total                  200.659             63.682            125.365
 Electronic               0.000              0.000              0.000
 Translational            0.889              2.981             43.110
 Rotational               0.889              2.981             32.962
 Vibrational            198.881             57.721             49.293
 Vibration     1          0.596              1.974              4.533
 Vibration     2          0.597              1.971              4.324
 Vibration     3          0.601              1.959              3.740
 Vibration     4          0.623              1.886              2.500
 Vibration     5          0.629              1.867              2.331
 Vibration     6          0.632              1.858              2.257
 Vibration     7          0.638              1.838              2.124
 Vibration     8          0.655              1.787              1.841
 Vibration     9          0.663              1.763              1.730
 Vibration    10          0.668              1.745              1.659
 Vibration    11          0.672              1.734              1.617
 Vibration    12          0.674              1.729              1.600
 Vibration    13          0.677              1.718              1.561
 Vibration    14          0.679              1.714              1.547
 Vibration    15          0.685              1.695              1.484
 Vibration    16          0.698              1.659              1.374
 Vibration    17          0.701              1.650              1.350
 Vibration    18          0.732              1.561              1.136
 Vibration    19          0.763              1.478              0.976
 Vibration    20          0.771              1.456              0.939
 Vibration    21          0.778              1.440              0.912
 Vibration    22          0.810              1.357              0.791
 Vibration    23          0.837              1.293              0.708
 Vibration    24          0.850              1.263              0.673
 Vibration    25          0.858              1.243              0.650
 Vibration    26          0.878              1.199              0.603
 Vibration    27          0.911              1.128              0.533
 Vibration    28          0.969              1.010              0.432
 Vibration    29          0.979              0.993              0.419

                           ! Non-Optimized Parameters !
 Normal termination of Gaussian 16 at Fri Mar 29 03:20:38 2024.
