 Gaussian 16, Revision C.01,
 Gaussian 16:  ES64L-G16RevC.01  3-Jul-2019

 ---------------------------------------------------------------
 # wb97xd def2TZVPP SCRF=(solvent=dichloromethane) opt=qst2 freq
 ---------------------------------------------------------------

 ------------------------
 ts_xyz/HZPtMeH_sigma.xyz
 ------------------------
 Symbolic Z-matrix:
 Charge =  2 Multiplicity = 1

 ------------------
 ts_xyz/HZPtMeH.xyz
 ------------------
 Symbolic Z-matrix:
 Charge =  2 Multiplicity = 1

 SCF Done:  E(RwB97XD) =  -829.739839873     A.U. after   17 cycles
 SCF Done:  E(RwB97XD) =  -829.741070057     A.U. after   13 cycles
 SCF Done:  E(RwB97XD) =  -829.746585542     A.U. after   14 cycles
 SCF Done:  E(RwB97XD) =  -829.750135674     A.U. after   13 cycles
 SCF Done:  E(RwB97XD) =  -829.754248994     A.U. after   13 cycles
 SCF Done:  E(RwB97XD) =  -829.761883286     A.U. after   14 cycles
 SCF Done:  E(RwB97XD) =  -829.765602289     A.U. after   13 cycles
 SCF Done:  E(RwB97XD) =  -829.763292243     A.U. after   13 cycles
 SCF Done:  E(RwB97XD) =  -829.761134138     A.U. after   13 cycles
 SCF Done:  E(RwB97XD) =  -829.760365171     A.U. after   12 cycles
 SCF Done:  E(RwB97XD) =  -829.759801705     A.U. after   11 cycles
 SCF Done:  E(RwB97XD) =  -829.758885582     A.U. after   12 cycles
 SCF Done:  E(RwB97XD) =  -829.759815838     A.U. after   12 cycles
 SCF Done:  E(RwB97XD) =  -829.759876773     A.U. after   11 cycles
 SCF Done:  E(RwB97XD) =  -829.759884160     A.U. after   10 cycles
 SCF Done:  E(RwB97XD) =  -829.759884980     A.U. after   10 cycles
 SCF Done:  E(RwB97XD) =  -829.759885391     A.U. after    9 cycles
 SCF Done:  E(RwB97XD) =  -829.759884036     A.U. after    7 cycles
 SCF Done:  E(RwB97XD) =  -829.759884095     A.U. after    7 cycles
 Optimization completed.
    -- Stationary point found.
 Normal termination of Gaussian 16 at Fri Apr  5 17:59:39 2024.

 ----------------------------------------------------------------------
 #N Geom=AllCheck Guess=TCheck SCRF=Check GenChk RwB97XD/def2TZVPP Freq
 ----------------------------------------------------------------------

 Structure from the checkpoint file:  "QST2_HZPtMeH_sigma_HZPtMeH.chk"
 ------------------------
 ts_xyz/HZPtMeH_sigma.xyz
 ------------------------
 Charge =  2 Multiplicity = 1

                         Standard orientation:
 ---------------------------------------------------------------------
 Center     Atomic      Atomic             Coordinates (Angstroms)
 Number     Number       Type             X           Y           Z
 ---------------------------------------------------------------------
      1         78           0       -0.943284    0.002754   -0.095609
      2          6           0        1.720880    1.166513   -0.128205
      3          6           0        1.711668   -1.186650   -0.128696
      4          6           0        3.087588    1.202892   -0.017979
      5          6           0        3.075210   -1.234364   -0.017143
      6          6           0        3.772230   -0.018948    0.046333
      7          1           0        3.621164    2.142062   -0.001855
      8          1           0        3.615929   -2.168095    0.001331
      9          8           0        5.091220   -0.093761    0.149092
     10          7           0        1.088055   -0.005996   -0.153912
     11          6           0        0.808283    2.336956   -0.381315
     12          1           0        0.797144    2.501213   -1.458798
     13          1           0        1.163045    3.251653    0.091337
     14          6           0        0.786636   -2.346144   -0.385799
     15          1           0        0.770253   -2.504907   -1.464043
     16          1           0        1.133174   -3.266708    0.081338
     17          7           0       -0.616066    2.080382    0.047352
     18          7           0       -0.634005   -2.077716    0.048461
     19          6           0       -2.994680    0.020127    0.228510
     20          1           0       -3.077613    0.087254    1.316013
     21          1           0       -3.500534    0.873097   -0.217451
     22          1           0       -3.491354   -0.885722   -0.109923
     23          6           0       -1.508111    2.956858   -0.748920
     24          1           0       -2.524759    2.854623   -0.384607
     25          1           0       -1.190725    3.993291   -0.634910
     26          1           0       -1.462305    2.671319   -1.795796
     27          6           0       -0.757544    2.427021    1.490904
     28          1           0       -0.536133    3.484880    1.628613
     29          1           0       -1.775419    2.225409    1.811631
     30          1           0       -0.058859    1.837705    2.082028
     31          6           0       -1.535046   -2.947639   -0.745000
     32          1           0       -1.219687   -3.985469   -0.638226
     33          1           0       -2.548812   -2.845042   -0.372931
     34          1           0       -1.496144   -2.657595   -1.790902
     35          6           0       -0.771304   -2.424416    1.492390
     36          1           0       -1.784917   -2.212912    1.819972
     37          1           0       -0.559501   -3.484538    1.627754
     38          1           0       -0.062961   -1.842699    2.079597
     39          1           0       -1.706485    0.001209   -1.394802
     40          1           0        5.501139    0.775349    0.165643
 ---------------------------------------------------------------------

 SCF Done:  E(RwB97XD) =  -829.759884095     A.U. after    1 cycles

 The electronic state is 1-A.
 Alpha  occ. eigenvalues --  -19.34432 -14.58417 -14.58375 -14.53871 -10.43615
 Alpha  occ. eigenvalues --  -10.41374 -10.41184 -10.39408 -10.39306 -10.36760
 Alpha  occ. eigenvalues --  -10.36704 -10.36191 -10.36160 -10.35563 -10.35207
 Alpha  occ. eigenvalues --  -10.32392  -4.15879  -2.39896  -2.39656  -2.38130
 Alpha  occ. eigenvalues --   -1.24081  -1.16091  -1.12713  -1.11994  -0.98073
 Alpha  occ. eigenvalues --   -0.96640  -0.90135  -0.87904  -0.87716  -0.87473
 Alpha  occ. eigenvalues --   -0.82600  -0.81128  -0.80021  -0.77318  -0.77140
 Alpha  occ. eigenvalues --   -0.71076  -0.69187  -0.66269  -0.66160  -0.64533
 Alpha  occ. eigenvalues --   -0.64238  -0.63477  -0.63123  -0.62154  -0.60342
 Alpha  occ. eigenvalues --   -0.58733  -0.58428  -0.57186  -0.56847  -0.55911
 Alpha  occ. eigenvalues --   -0.55622  -0.54720  -0.54219  -0.54077  -0.53161
 Alpha  occ. eigenvalues --   -0.52986  -0.52694  -0.52101  -0.51820  -0.51711
 Alpha  occ. eigenvalues --   -0.50920  -0.50408  -0.49755  -0.46839  -0.45325
 Alpha  occ. eigenvalues --   -0.44269  -0.42363  -0.42039  -0.40382  -0.38798
 Alpha virt. eigenvalues --   -0.06335  -0.02441  -0.01613  -0.00993   0.05780
 Alpha virt. eigenvalues --    0.08304   0.08474   0.09344   0.10051   0.10792
 Alpha virt. eigenvalues --    0.11280   0.11403   0.12170   0.12487   0.13024

 Mulliken charges:
               1
     1  Pt   0.691858
     2  C    0.112743
     3  C    0.137804
     4  C   -0.162177
     5  C   -0.179467
     6  C    0.294168
     7  H    0.129902
     8  H    0.142276
     9  O   -0.249071
    10  N   -0.259010
    11  C   -0.044892
    12  H    0.145416
    13  H    0.141901
    14  C   -0.041351
    15  H    0.144976
    16  H    0.142105
    17  N   -0.058070
    18  N   -0.058458
    19  C   -0.513886
    20  H    0.136256
    21  H    0.139629
    22  H    0.137808
    23  C   -0.181563
    24  H    0.119537
    25  H    0.135189
    26  H    0.128686
    27  C   -0.197414
    28  H    0.127484
    29  H    0.137747
    30  H    0.133321
    31  C   -0.180601
    32  H    0.135293
    33  H    0.119118
    34  H    0.128145
    35  C   -0.196047
    36  H    0.137842
    37  H    0.127731
    38  H    0.132781
    39  H    0.035379
    40  H    0.226911
 Sum of Mulliken charges =   2.00000

 Dipole moment (field-independent basis, Debye):
    X=              2.4933    Y=              1.6645    Z=              0.6220  Tot=              3.0617
 Quadrupole moment (field-independent basis, Debye-Ang):
   XX=            -68.3919   YY=            -58.3245   ZZ=           -105.3144
   XY=              9.6332   XZ=             -0.1864   YZ=              0.2922

  Exact polarizability:     310.030       1.063     273.364      -0.198       0.084     173.221
 Approx polarizability:     252.837       0.382     233.977       2.592       0.037     174.110

 ******    1 imaginary frequencies (negative Signs) ******

                      1                      2                      3
                      A                      A                      A
 Frequencies --   -277.5411                61.9844                82.6237
 Red. masses --      1.2902                 3.8720                 2.9084
 Frc consts  --      0.0586                 0.0088                 0.0117
 IR Inten    --     39.6476                 0.1348                 0.3555

                      4                      5                      6
                      A                      A                      A
 Frequencies --    117.8658               126.3784               194.9245
 Red. masses --      1.6119                 1.8243                 3.4007
 Frc consts  --      0.0132                 0.0172                 0.0761
 IR Inten    --      1.7560                 1.6308                 0.9756

                      7                      8                      9
                      A                      A                      A
 Frequencies --    198.3459               207.9666               213.7276
 Red. masses --      2.8449                 2.9790                 3.9295
 Frc consts  --      0.0659                 0.0759                 0.1058
 IR Inten    --      2.0647                 5.8766                 5.8856

                     10                     11                     12
                      A                      A                      A
 Frequencies --    215.7835               228.9311               261.0088
 Red. masses --      2.0907                 2.1022                 2.9420
 Frc consts  --      0.0574                 0.0649                 0.1181
 IR Inten    --      0.3468                 2.1572                 2.4515

                     13                     14                     15
                      A                      A                      A
 Frequencies --    264.6305               278.5795               281.3087
 Red. masses --      1.4783                 3.0132                 3.9817
 Frc consts  --      0.0610                 0.1378                 0.1856
 IR Inten    --      2.2164                 1.5137                 2.1508

                     16                     17                     18
                      A                      A                      A
 Frequencies --    294.4192               311.8044               322.2012
 Red. masses --      1.8043                 1.1448                 1.5048
 Frc consts  --      0.0921                 0.0656                 0.0920
 IR Inten    --      0.4021                 0.0407                 0.9787

                     19                     20                     21
                      A                      A                      A
 Frequencies --    333.2352               334.1118               337.2760
 Red. masses --      2.0749                 2.1251                 2.1151
 Frc consts  --      0.1358                 0.1398                 0.1418
 IR Inten    --      4.0792                 0.7082                 3.4972

                     22                     23                     24
                      A                      A                      A
 Frequencies --    365.7481               395.8290               416.0751
 Red. masses --      3.1744                 2.4748                 2.7413
 Frc consts  --      0.2502                 0.2285                 0.2796
 IR Inten    --     23.7778                 3.3477                 2.2341

                     25                     26                     27
                      A                      A                      A
 Frequencies --    458.4627               490.9334               504.9294
 Red. masses --      2.7916                 2.5289                 3.0474
 Frc consts  --      0.3457                 0.3591                 0.4578
 IR Inten    --     10.8799                19.0028                22.1930

                     28                     29                     30
                      A                      A                      A
 Frequencies --    512.9772               537.6117               541.3165
 Red. masses --      1.1779                 2.8337                 3.4269
 Frc consts  --      0.1826                 0.4825                 0.5916
 IR Inten    --    139.4382                 0.1266                 8.8137

                     31                     32                     33
                      A                      A                      A
 Frequencies --    567.6009               592.7773               613.5250
 Red. masses --      2.7281                 3.7014                 6.4160
 Frc consts  --      0.5178                 0.7663                 1.4229
 IR Inten    --     30.6623                17.0158                 5.9404

                     34                     35                     36
                      A                      A                      A
 Frequencies --    634.2013               692.2800               725.2689
 Red. masses --      3.8235                 5.6118                 3.8325
 Frc consts  --      0.9061                 1.5846                 1.1878
 IR Inten    --      0.1269                 4.4376                 0.2268

                     37                     38                     39
                      A                      A                      A
 Frequencies --    763.9908               768.9515               862.3480
 Red. masses --      3.0731                 1.0680                 1.1768
 Frc consts  --      1.0568                 0.3720                 0.5156
 IR Inten    --      4.7287                26.5571                11.7855

                     40                     41                     42
                      A                      A                      A
 Frequencies --    877.6442               883.3067               906.3982
 Red. masses --      2.6754                 3.1168                 1.1771
 Frc consts  --      1.2141                 1.4328                 0.5698
 IR Inten    --     54.7476                25.6861                 3.1345

                     43                     44                     45
                      A                      A                      A
 Frequencies --    916.7483               923.4315               967.3376
 Red. masses --      1.6508                 1.6376                 2.7452
 Frc consts  --      0.8174                 0.8228                 1.5135
 IR Inten    --     42.0371                33.7781                44.7882

                     46                     47                     48
                      A                      A                      A
 Frequencies --    979.6122               994.3373              1006.4156
 Red. masses --      2.9694                 2.3332                 2.4401
 Frc consts  --      1.6789                 1.3592                 1.4562
 IR Inten    --      5.8869                20.2195                27.3679

                     49                     50                     51
                      A                      A                      A
 Frequencies --   1013.3547              1045.0692              1048.9149
 Red. masses --      2.7359                 1.7789                 1.7606
 Frc consts  --      1.6553                 1.1447                 1.1412
 IR Inten    --     34.5925                 7.0300                 9.7882

                     52                     53                     54
                      A                      A                      A
 Frequencies --   1057.9463              1108.8304              1140.2164
 Red. masses --      3.2967                 6.5901                 1.2657
 Frc consts  --      2.1740                 4.7739                 0.9695
 IR Inten    --     10.4397               253.4423                 0.2876

                     55                     56                     57
                      A                      A                      A
 Frequencies --   1144.3931              1186.6756              1190.7500
 Red. masses --      1.2631                 1.6152                 1.5079
 Frc consts  --      0.9746                 1.3401                 1.2597
 IR Inten    --      2.6936                51.0686                29.4484

                     58                     59                     60
                      A                      A                      A
 Frequencies --   1195.0103              1212.4735              1227.4970
 Red. masses --      1.5901                 1.3860                 1.6036
 Frc consts  --      1.3379                 1.2005                 1.4236
 IR Inten    --    105.0921                10.0077                38.4114

                     61                     62                     63
                      A                      A                      A
 Frequencies --   1237.0653              1258.5636              1274.9357
 Red. masses --      1.8351                 1.6895                 1.8532
 Frc consts  --      1.6546                 1.5767                 1.7748
 IR Inten    --      6.0128                37.7794                 0.9360

                     64                     65                     66
                      A                      A                      A
 Frequencies --   1280.6801              1310.7303              1318.8850
 Red. masses --      1.9042                 1.1858                 1.4089
 Frc consts  --      1.8401                 1.2003                 1.4439
 IR Inten    --      0.1987                30.2782                11.1961

                     67                     68                     69
                      A                      A                      A
 Frequencies --   1320.2788              1360.4394              1390.3602
 Red. masses --      1.3698                 2.6148                 1.6486
 Frc consts  --      1.4068                 2.8513                 1.8777
 IR Inten    --      7.1359                58.2839                66.1798

                     70                     71                     72
                      A                      A                      A
 Frequencies --   1412.5429              1426.6978              1456.5823
 Red. masses --      1.7528                 4.0270                 1.0747
 Frc consts  --      2.0606                 4.8294                 1.3434
 IR Inten    --     85.0983               197.5992                 4.9188

                     73                     74                     75
                      A                      A                      A
 Frequencies --   1459.8446              1465.8706              1474.9475
 Red. masses --      1.1360                 1.1304                 1.1153
 Frc consts  --      1.4264                 1.4311                 1.4295
 IR Inten    --      3.5132                 0.9986                11.5686

                     76                     77                     78
                      A                      A                      A
 Frequencies --   1478.4140              1481.2295              1484.0989
 Red. masses --      1.1033                 1.0675                 1.0580
 Frc consts  --      1.4208                 1.3799                 1.3730
 IR Inten    --     18.8449                13.5539                 6.8627

                     79                     80                     81
                      A                      A                      A
 Frequencies --   1486.3873              1495.8256              1502.9014
 Red. masses --      1.0524                 1.1145                 1.1176
 Frc consts  --      1.3699                 1.4693                 1.4874
 IR Inten    --      0.4230                 6.5887                11.7063

                     82                     83                     84
                      A                      A                      A
 Frequencies --   1506.1178              1508.1486              1512.2385
 Red. masses --      1.0611                 1.0496                 1.0484
 Frc consts  --      1.4182                 1.4066                 1.4127
 IR Inten    --      1.7892                35.1559                29.9829

                     85                     86                     87
                      A                      A                      A
 Frequencies --   1515.7178              1516.3083              1522.3517
 Red. masses --      1.0604                 1.0605                 1.4599
 Frc consts  --      1.4353                 1.4366                 1.9935
 IR Inten    --     19.6285                55.5691                15.6036

                     88                     89                     90
                      A                      A                      A
 Frequencies --   1524.2554              1555.6190              1657.1706
 Red. masses --      1.8772                 4.1687                 7.8693
 Frc consts  --      2.5697                 5.9437                12.7327
 IR Inten    --    151.0067                10.3870               166.2986

                     91                     92                     93
                      A                      A                      A
 Frequencies --   1686.3666              2670.5737              3057.1604
 Red. masses --      6.7892                 1.0131                 1.0351
 Frc consts  --     11.3755                 4.2571                 5.6997
 IR Inten    --    545.0843                59.0070                13.3667

                     94                     95                     96
                      A                      A                      A
 Frequencies --   3071.3892              3072.8360              3077.0617
 Red. masses --      1.0337                 1.0339                 1.0355
 Frc consts  --      5.7456                 5.7517                 5.7765
 IR Inten    --     12.4991                10.2296                17.8336

                     97                     98                     99
                      A                      A                      A
 Frequencies --   3077.4704              3094.4854              3095.7356
 Red. masses --      1.0353                 1.0601                 1.0602
 Frc consts  --      5.7771                 5.9809                 5.9862
 IR Inten    --     13.6367                 3.5243                 3.1400

                    100                    101                    102
                      A                      A                      A
 Frequencies --   3149.5020              3150.7456              3154.1055
 Red. masses --      1.1070                 1.1067                 1.0993
 Frc consts  --      6.4698                 6.4729                 6.4436
 IR Inten    --      3.6690                 3.8006                20.4283

                    103                    104                    105
                      A                      A                      A
 Frequencies --   3159.2285              3160.4777              3167.2750
 Red. masses --      1.1072                 1.1072                 1.1046
 Frc consts  --      6.5110                 6.5161                 6.5290
 IR Inten    --      9.8505                 6.9172                 3.9362

                    106                    107                    108
                      A                      A                      A
 Frequencies --   3167.7412              3175.9493              3183.3172
 Red. masses --      1.1046                 1.1044                 1.1073
 Frc consts  --      6.5305                 6.5632                 6.6111
 IR Inten    --      4.1495                19.0269                 2.0046

                    109                    110                    111
                      A                      A                      A
 Frequencies --   3184.4023              3198.0044              3199.1683
 Red. masses --      1.1069                 1.1067                 1.1063
 Frc consts  --      6.6135                 6.6689                 6.6709
 IR Inten    --      3.0031                 7.2335                 5.8429

                    112                    113                    114
                      A                      A                      A
 Frequencies --   3232.6759              3248.8789              3862.3198
 Red. masses --      1.0951                 1.0952                 1.0666
 Frc consts  --      6.7425                 6.8108                 9.3747
 IR Inten    --      1.6623                 2.1885               265.2329

 - Thermochemistry -
 -------------------
 Temperature   298.150 Kelvin.  Pressure   1.00000 Atm.
 Atom     1 has atomic number 78 and mass 194.96480

 Molecular mass:   420.14891 amu.
 Principal axes and moments of inertia in atomic units:
                           1         2         3
     Eigenvalues --  3327.580325396.688457937.03233
           X            0.99996   0.00779  -0.00353
           Y           -0.00779   0.99997   0.00018
           Z            0.00353  -0.00016   0.99999
 This molecule is an asymmetric top.
 Rotational symmetry number  1.
 Warning -- assumption of classical behavior for rotation
           may cause significant error
 Rotational temperatures (Kelvin)      0.02603     0.01605     0.01091
 Rotational constants (GHZ):           0.54236     0.33442     0.22738
    1 imaginary frequencies ignored.
 Zero-point vibrational energy     924895.0 (Joules/Mol)
                                  221.05522 (Kcal/Mol)
 Warning -- explicit consideration of  32 degrees of freedom as
           vibrations may cause significant error
 Vibrational temperatures:     89.18   118.88   169.58   181.83   280.45
          (Kelvin)            285.38   299.22   307.51   310.46   329.38
                              375.53   380.74   400.81   404.74   423.60
                              448.62   463.58   479.45   480.71   485.26
                              526.23   569.51   598.64   659.63   706.34
                              726.48   738.06   773.50   778.83   816.65
                              852.87   882.73   912.47   996.04  1043.50
                             1099.21  1106.35  1240.73  1262.73  1270.88
                             1304.10  1319.00  1328.61  1391.78  1409.44
                             1430.63  1448.01  1457.99  1503.62  1509.15
                             1522.15  1595.36  1640.52  1646.53  1707.36
                             1713.22  1719.35  1744.48  1766.09  1779.86
                             1810.79  1834.35  1842.61  1885.85  1897.58
                             1899.59  1957.37  2000.42  2032.33  2052.70
                             2095.70  2100.39  2109.06  2122.12  2127.11
                             2131.16  2135.29  2138.58  2152.16  2162.34
                             2166.97  2169.89  2175.77  2180.78  2181.63
                             2190.32  2193.06  2238.19  2384.30  2426.31
                             3842.36  4398.57  4419.04  4421.13  4427.21
                             4427.79  4452.27  4454.07  4531.43  4533.22
                             4538.05  4545.43  4547.22  4557.00  4557.67
                             4569.48  4580.08  4581.64  4601.22  4602.89
                             4651.10  4674.41  5557.02

 Zero-point correction=                           0.352274 (Hartree/Particle)
 Thermal correction to Energy=                    0.369806
 Thermal correction to Enthalpy=                  0.370750
 Thermal correction to Gibbs Free Energy=         0.308858
 Sum of electronic and zero-point Energies=           -829.407610
 Sum of electronic and thermal Energies=              -829.390078
 Sum of electronic and thermal Enthalpies=            -829.389134
 Sum of electronic and thermal Free Energies=         -829.451026

                     E (Thermal)             CV                S
                      KCal/Mol        Cal/Mol-Kelvin    Cal/Mol-Kelvin
 Total                  232.057             71.107            130.263
 Electronic               0.000              0.000              0.000
 Translational            0.889              2.981             43.997
 Rotational               0.889              2.981             33.321
 Vibrational            230.279             65.145             52.944
 Vibration     1          0.597              1.972              4.393
 Vibration     2          0.600              1.961              3.828
 Vibration     3          0.608              1.934              3.135
 Vibration     4          0.611              1.927              3.000
 Vibration     5          0.636              1.847              2.180
 Vibration     6          0.637              1.842              2.148
 Vibration     7          0.641              1.828              2.061
 Vibration     8          0.644              1.820              2.012
 Vibration     9          0.645              1.817              1.994
 Vibration    10          0.652              1.797              1.887
 Vibration    11          0.669              1.744              1.655
 Vibration    12          0.671              1.738              1.631
 Vibration    13          0.679              1.713              1.542
 Vibration    14          0.681              1.708              1.526
 Vibration    15          0.689              1.684              1.448
 Vibration    16          0.700              1.651              1.353
 Vibration    17          0.707              1.631              1.299
 Vibration    18          0.715              1.609              1.244
 Vibration    19          0.716              1.607              1.240
 Vibration    20          0.718              1.601              1.225
 Vibration    21          0.739              1.543              1.098
 Vibration    22          0.763              1.479              0.978
 Vibration    23          0.779              1.435              0.905
 Vibration    24          0.816              1.342              0.771
 Vibration    25          0.847              1.270              0.681
 Vibration    26          0.860              1.239              0.646
 Vibration    27          0.868              1.221              0.626
 Vibration    28          0.893              1.167              0.570
 Vibration    29          0.896              1.159              0.562
 Vibration    30          0.924              1.101              0.509
 Vibration    31          0.950              1.047              0.462
 Vibration    32          0.973              1.003              0.427

 Optimization completed.
    -- Stationary point found.
 Normal termination of Gaussian 16 at Fri Apr  5 19:18:59 2024.
