 Gaussian 16, Revision C.01,
 Gaussian 16:  ES64L-G16RevC.01  3-Jul-2019

 ---------------------------------------------------------------
 # wb97xd def2TZVPP SCRF=(solvent=dichloromethane) opt=qst2 freq
 ---------------------------------------------------------------

 -----------------------
 ts_xyz/ZIrMeH_sigma.xyz
 -----------------------
 Symbolic Z-matrix:
 Charge =  0 Multiplicity = 1

 -----------------
 ts_xyz/ZIrMeH.xyz
 -----------------
 Symbolic Z-matrix:
 Charge =  0 Multiplicity = 1

 SCF Done:  E(RwB97XD) =  -814.467491879     A.U. after   17 cycles
 SCF Done:  E(RwB97XD) =  -814.465342554     A.U. after   14 cycles
 SCF Done:  E(RwB97XD) =  -814.480661512     A.U. after   16 cycles
 SCF Done:  E(RwB97XD) =  -814.486490625     A.U. after   15 cycles
 SCF Done:  E(RwB97XD) =  -814.487148611     A.U. after   13 cycles
 SCF Done:  E(RwB97XD) =  -814.488523131     A.U. after   15 cycles
 SCF Done:  E(RwB97XD) =  -814.489153719     A.U. after   13 cycles
 SCF Done:  E(RwB97XD) =  -814.489237154     A.U. after   13 cycles
 SCF Done:  E(RwB97XD) =  -814.489275901     A.U. after   12 cycles
 SCF Done:  E(RwB97XD) =  -814.489280267     A.U. after   10 cycles
 SCF Done:  E(RwB97XD) =  -814.489282054     A.U. after   10 cycles
 SCF Done:  E(RwB97XD) =  -814.489282098     A.U. after    9 cycles
 SCF Done:  E(RwB97XD) =  -814.489276435     A.U. after   11 cycles
 SCF Done:  E(RwB97XD) =  -814.489281839     A.U. after   10 cycles
 Optimization completed.
    -- Stationary point found.
 Normal termination of Gaussian 16 at Fri Mar  8 14:04:18 2024.

 ----------------------------------------------------------------------
 #N Geom=AllCheck Guess=TCheck SCRF=Check GenChk RwB97XD/def2TZVPP Freq
 ----------------------------------------------------------------------

 Structure from the checkpoint file:  "QST2_ZIrMeH_sigma_ZIrMeH.chk"
 -----------------------
 ts_xyz/ZIrMeH_sigma.xyz
 -----------------------
 Charge =  0 Multiplicity = 1

                         Standard orientation:
 ---------------------------------------------------------------------
 Center     Atomic      Atomic             Coordinates (Angstroms)
 Number     Number       Type             X           Y           Z
 ---------------------------------------------------------------------
      1          6           0       -1.715872   -1.171186   -0.229142
      2          6           0       -1.715874    1.171184   -0.229143
      3          6           0       -3.054817   -1.219842    0.010741
      4          6           0       -3.054819    1.219838    0.010740
      5          6           0       -3.819309   -0.000002    0.161432
      6          1           0       -3.569677   -2.167933    0.089477
      7          1           0       -3.569680    2.167929    0.089475
      8          8           0       -5.043803   -0.000003    0.399085
      9          7           0       -1.058048   -0.000001   -0.332491
     10          6           0       -0.812851   -2.341689   -0.513811
     11          1           0       -0.747440   -2.444372   -1.597455
     12          1           0       -1.208820   -3.275726   -0.111378
     13          6           0       -0.812854    2.341688   -0.513811
     14          1           0       -0.747443    2.444371   -1.597456
     15          1           0       -1.208825    3.275724   -0.111379
     16          7           0        0.581517   -2.113744   -0.009899
     17          7           0        0.581513    2.113745   -0.009899
     18          6           0        2.981731   -0.000001    0.684696
     19          1           0        2.607076    0.000013    1.711486
     20          1           0        3.614538   -0.880973    0.561485
     21          1           0        3.614559    0.880954    0.561470
     22          6           0        1.512547   -2.942964   -0.795083
     23          1           0        2.516577   -2.821579   -0.396278
     24          1           0        1.231335   -3.999058   -0.739916
     25          1           0        1.500300   -2.614682   -1.830911
     26          6           0        0.645157   -2.541423    1.404408
     27          1           0        0.432411   -3.611617    1.484842
     28          1           0        1.638182   -2.341687    1.798540
     29          1           0       -0.085844   -1.986307    1.987824
     30          6           0        1.512543    2.942966   -0.795081
     31          1           0        1.231331    3.999060   -0.739914
     32          1           0        2.516573    2.821582   -0.396275
     33          1           0        1.500298    2.614684   -1.830909
     34          6           0        0.645151    2.541424    1.404408
     35          1           0        1.638176    2.341690    1.798541
     36          1           0        0.432404    3.611617    1.484842
     37          1           0       -0.085850    1.986307    1.987824
     38          1           0        2.449302    0.000006   -0.589956
     39         77           0        0.909762    0.000001   -0.103153
 ---------------------------------------------------------------------

 SCF Done:  E(RwB97XD) =  -814.489281839     A.U. after    1 cycles

 The electronic state is 1-A.
 Alpha  occ. eigenvalues --  -19.18016 -14.50383 -14.50382 -14.45187 -10.33952
 Alpha  occ. eigenvalues --  -10.33264 -10.33262 -10.33167 -10.33167 -10.31557
 Alpha  occ. eigenvalues --  -10.31557 -10.31534 -10.31534 -10.28675 -10.27014
 Alpha  occ. eigenvalues --  -10.27014  -3.74108  -2.08468  -2.07797  -2.05227
 Alpha  occ. eigenvalues --   -1.08974  -1.07848  -1.06370  -1.04651  -0.90680
 Alpha  occ. eigenvalues --   -0.86320  -0.83801  -0.82514  -0.82477  -0.80266
 Alpha  occ. eigenvalues --   -0.79432  -0.73348  -0.72591  -0.70687  -0.66522
 Alpha  occ. eigenvalues --   -0.61866  -0.60504  -0.59409  -0.58734  -0.58021
 Alpha  occ. eigenvalues --   -0.57314  -0.56887  -0.56227  -0.53563  -0.52402
 Alpha  occ. eigenvalues --   -0.51447  -0.50868  -0.50247  -0.49810  -0.48834
 Alpha  occ. eigenvalues --   -0.48813  -0.48441  -0.47945  -0.46890  -0.46831
 Alpha  occ. eigenvalues --   -0.46618  -0.46185  -0.45835  -0.44428  -0.43519
 Alpha  occ. eigenvalues --   -0.43118  -0.40693  -0.37861  -0.33762  -0.31340
 Alpha  occ. eigenvalues --   -0.30889  -0.28587  -0.27279  -0.27150  -0.24816
 Alpha virt. eigenvalues --    0.04628   0.05738   0.08600   0.09387   0.10306
 Alpha virt. eigenvalues --    0.11634   0.11889   0.13571   0.14932   0.15020
 Alpha virt. eigenvalues --    0.15386   0.15781   0.16231   0.16446   0.16872

 Mulliken charges:
               1
     1  C    0.103257
     2  C    0.103257
     3  C   -0.292555
     4  C   -0.292555
     5  C    0.294007
     6  H    0.099488
     7  H    0.099488
     8  O   -0.564675
     9  N   -0.233345
    10  C   -0.078999
    11  H    0.120218
    12  H    0.113784
    13  C   -0.078999
    14  H    0.120218
    15  H    0.113784
    16  N   -0.066176
    17  N   -0.066176
    18  C   -0.461268
    19  H    0.125142
    20  H    0.115045
    21  H    0.115046
    22  C   -0.180009
    23  H    0.102924
    24  H    0.112186
    25  H    0.111357
    26  C   -0.210404
    27  H    0.104437
    28  H    0.114919
    29  H    0.124395
    30  C   -0.180009
    31  H    0.112186
    32  H    0.102924
    33  H    0.111357
    34  C   -0.210405
    35  H    0.114919
    36  H    0.104437
    37  H    0.124396
    38  H    0.068162
    39  Ir  -0.015761
 Sum of Mulliken charges =  -0.00000

 Dipole moment (field-independent basis, Debye):
    X=             12.8496    Y=              0.0000    Z=              0.0309  Tot=             12.8496
 Quadrupole moment (field-independent basis, Debye-Ang):
   XX=           -181.4651   YY=            -89.4935   ZZ=           -120.7708
   XY=             -0.0001   XZ=              6.7891   YZ=              0.0000

  Exact polarizability:     361.534       0.000     281.025      -6.223      -0.000     215.684
 Approx polarizability:     286.341       0.000     231.483      -8.312      -0.000     202.660

 ******    1 imaginary frequencies (negative Signs) ******

                      1                      2                      3
                      A                      A                      A
 Frequencies --   -625.2843                56.3990                60.6046
 Red. masses --      1.2896                 4.9789                 3.0317
 Frc consts  --      0.2971                 0.0093                 0.0066
 IR Inten    --   1147.5683                 4.6666                 1.0073

                      4                      5                      6
                      A                      A                      A
 Frequencies --     69.7727               114.3642               132.3559
 Red. masses --      3.3406                 1.2054                 3.2819
 Frc consts  --      0.0096                 0.0093                 0.0339
 IR Inten    --      3.4549                 1.1199                15.4968

                      7                      8                      9
                      A                      A                      A
 Frequencies --    162.1077               174.5725               193.8560
 Red. masses --      1.9861                 4.1741                 3.9238
 Frc consts  --      0.0308                 0.0749                 0.0869
 IR Inten    --      0.1008                 0.2730                 0.5606

                     10                     11                     12
                      A                      A                      A
 Frequencies --    207.3889               212.3069               238.4488
 Red. masses --      2.5878                 3.5791                 4.3287
 Frc consts  --      0.0656                 0.0951                 0.1450
 IR Inten    --      0.2508                 2.7810                 5.9643

                     13                     14                     15
                      A                      A                      A
 Frequencies --    243.7873               266.0584               267.5236
 Red. masses --      3.9478                 2.5925                 3.4012
 Frc consts  --      0.1382                 0.1081                 0.1434
 IR Inten    --      0.8311                 2.0229                 0.1688

                     16                     17                     18
                      A                      A                      A
 Frequencies --    279.7923               282.3465               293.1431
 Red. masses --      2.6997                 2.4875                 1.3068
 Frc consts  --      0.1245                 0.1168                 0.0662
 IR Inten    --      1.6238                 0.5324                 0.7461

                     19                     20                     21
                      A                      A                      A
 Frequencies --    293.8406               318.3514               320.6735
 Red. masses --      1.3390                 1.1190                 1.1514
 Frc consts  --      0.0681                 0.0668                 0.0698
 IR Inten    --      2.0406                 2.7181                 0.9662

                     22                     23                     24
                      A                      A                      A
 Frequencies --    363.6316               411.8059               417.5478
 Red. masses --      4.3910                 2.3544                 2.2518
 Frc consts  --      0.3421                 0.2352                 0.2313
 IR Inten    --     15.3086                 2.0921                 0.7336

                     25                     26                     27
                      A                      A                      A
 Frequencies --    461.9918               487.8474               498.4286
 Red. masses --      2.7520                 2.4188                 3.1228
 Frc consts  --      0.3461                 0.3392                 0.4571
 IR Inten    --      2.8069                26.6735                30.7698

                     28                     29                     30
                      A                      A                      A
 Frequencies --    519.4577               533.4840               536.3860
 Red. masses --      2.7735                 1.2883                 2.4751
 Frc consts  --      0.4409                 0.2160                 0.4196
 IR Inten    --      0.7559                 3.4576               112.8297

                     31                     32                     33
                      A                      A                      A
 Frequencies --    539.7789               563.3447               618.5139
 Red. masses --      2.9715                 3.2700                 5.7697
 Frc consts  --      0.5101                 0.6114                 1.3005
 IR Inten    --      0.2603                13.5264                 3.2554

                     34                     35                     36
                      A                      A                      A
 Frequencies --    634.6778               698.4015               730.5095
 Red. masses --      3.6013                 5.6540                 3.0556
 Frc consts  --      0.8547                 1.6249                 0.9607
 IR Inten    --      2.0492                 0.7275                 1.1227

                     37                     38                     39
                      A                      A                      A
 Frequencies --    757.6249               853.7057               871.0880
 Red. masses --      2.9493                 1.4345                 2.5143
 Frc consts  --      0.9974                 0.6160                 1.1241
 IR Inten    --      8.8889                10.6413                60.8845

                     40                     41                     42
                      A                      A                      A
 Frequencies --    892.7814               892.8512               935.9220
 Red. masses --      2.7779                 3.1953                 2.9132
 Frc consts  --      1.3045                 1.5008                 1.5035
 IR Inten    --     69.2011                22.8966                63.4760

                     43                     44                     45
                      A                      A                      A
 Frequencies --    971.3181               991.8634               996.2547
 Red. masses --      1.2167                 1.8320                 2.1486
 Frc consts  --      0.6763                 1.0619                 1.2565
 IR Inten    --    265.8810                 7.7888                63.2174

                     46                     47                     48
                      A                      A                      A
 Frequencies --    997.5981               997.8758              1014.9639
 Red. masses --      2.6808                 1.3707                 2.4493
 Frc consts  --      1.5719                 0.8041                 1.4866
 IR Inten    --     19.4604                 0.6103                59.6361

                     49                     50                     51
                      A                      A                      A
 Frequencies --   1049.9363              1051.5862              1055.9481
 Red. masses --      1.7430                 1.6150                 2.9625
 Frc consts  --      1.1321                 1.0523                 1.9462
 IR Inten    --      5.5292                17.8422                12.5918

                     52                     53                     54
                      A                      A                      A
 Frequencies --   1120.3893              1131.7912              1135.0814
 Red. masses --      4.6770                 1.2659                 1.2728
 Frc consts  --      3.4590                 0.9554                 0.9662
 IR Inten    --    118.2337                 0.2540                 4.9669

                     55                     56                     57
                      A                      A                      A
 Frequencies --   1179.4899              1183.2704              1210.6887
 Red. masses --      1.4971                 1.4758                 1.5894
 Frc consts  --      1.2271                 1.2174                 1.3726
 IR Inten    --      0.0000                12.9135                 0.0026

                     58                     59                     60
                      A                      A                      A
 Frequencies --   1212.6882              1223.0596              1226.3534
 Red. masses --      1.8865                 1.8991                 1.6630
 Frc consts  --      1.6346                 1.6738                 1.4736
 IR Inten    --     14.3001                 7.2750                11.4993

                     61                     62                     63
                      A                      A                      A
 Frequencies --   1264.1000              1278.7481              1282.8331
 Red. masses --      5.3416                 2.1009                 2.0563
 Frc consts  --      5.0290                 2.0241                 1.9938
 IR Inten    --      0.0023                 2.1275                 1.1524

                     64                     65                     66
                      A                      A                      A
 Frequencies --   1287.3586              1320.4975              1322.7830
 Red. masses --      1.1586                 1.3869                 1.4860
 Frc consts  --      1.1313                 1.4249                 1.5319
 IR Inten    --     18.0085                 1.7547                11.4344

                     67                     68                     69
                      A                      A                      A
 Frequencies --   1388.7578              1398.1369              1430.7523
 Red. masses --      1.4139                 1.4464                 3.9697
 Frc consts  --      1.6067                 1.6658                 4.7878
 IR Inten    --      2.4118                10.5466               126.5547

                     70                     71                     72
                      A                      A                      A
 Frequencies --   1448.9100              1449.6785              1469.0679
 Red. masses --      1.1511                 1.1560                 1.0890
 Frc consts  --      1.4237                 1.4314                 1.3847
 IR Inten    --      0.1701                 8.3680                 0.2897

                     73                     74                     75
                      A                      A                      A
 Frequencies --   1471.0749              1473.0446              1478.3294
 Red. masses --      1.1350                 1.1009                 1.0643
 Frc consts  --      1.4472                 1.4074                 1.3705
 IR Inten    --      8.4718                14.4485                 5.7657

                     76                     77                     78
                      A                      A                      A
 Frequencies --   1485.0179              1485.6463              1487.5772
 Red. masses --      1.0491                 1.0424                 1.1041
 Frc consts  --      1.3631                 1.3556                 1.4395
 IR Inten    --      0.0319                 1.1948                 6.3705

                     79                     80                     81
                      A                      A                      A
 Frequencies --   1490.4508              1500.7436              1500.7987
 Red. masses --      1.1129                 1.0602                 1.0580
 Frc consts  --      1.4566                 1.4068                 1.4040
 IR Inten    --      2.9336                29.3066                 2.7950

                     82                     83                     84
                      A                      A                      A
 Frequencies --   1505.7297              1508.0552              1508.0701
 Red. masses --      1.0510                 1.0511                 1.0461
 Frc consts  --      1.4040                 1.4084                 1.4017
 IR Inten    --      0.2115                48.7233                46.1369

                     85                     86                     87
                      A                      A                      A
 Frequencies --   1508.5623              1546.5867              1581.5566
 Red. masses --      1.0467                 8.3352                 6.6363
 Frc consts  --      1.4035                11.7467                 9.7802
 IR Inten    --      0.8178               180.8303                21.4425

                     88                     89                     90
                      A                      A                      A
 Frequencies --   1613.1921              1676.9349              2308.6055
 Red. masses --      9.4847                 7.6468                 1.0142
 Frc consts  --     14.5427                12.6695                 3.1848
 IR Inten    --   1047.5487               923.8604                36.4681

                     91                     92                     93
                      A                      A                      A
 Frequencies --   3023.5097              3034.1796              3034.2309
 Red. masses --      1.0334                 1.0447                 1.0446
 Frc consts  --      5.5662                 5.6666                 5.6662
 IR Inten    --     57.4289                13.5042                43.2441

                     94                     95                     96
                      A                      A                      A
 Frequencies --   3035.9603              3037.3202              3071.1592
 Red. masses --      1.0453                 1.0453                 1.0599
 Frc consts  --      5.6764                 5.6816                 5.8899
 IR Inten    --    227.4941                17.2671                64.4177

                     97                     98                     99
                      A                      A                      A
 Frequencies --   3071.6532              3098.0985              3110.0626
 Red. masses --      1.0598                 1.1011                 1.1021
 Frc consts  --      5.8913                 6.2267                 6.2808
 IR Inten    --     12.2985                51.9008                34.8473

                    100                    101                    102
                      A                      A                      A
 Frequencies --   3123.4780              3123.6770              3134.0881
 Red. masses --      1.1059                 1.1058                 1.0910
 Frc consts  --      6.3567                 6.3571                 6.3138
 IR Inten    --     15.3930                 8.1474                 2.7255

                    103                    104                    105
                      A                      A                      A
 Frequencies --   3134.1679              3137.3454              3137.4816
 Red. masses --      1.0910                 1.0897                 1.0897
 Frc consts  --      6.3142                 6.3196                 6.3200
 IR Inten    --     29.7269                26.4114                19.9553

                    106                    107                    108
                      A                      A                      A
 Frequencies --   3173.3785              3173.4015              3176.6154
 Red. masses --      1.1060                 1.1060                 1.1060
 Frc consts  --      6.5625                 6.5625                 6.5755
 IR Inten    --     15.6870                 0.7404                 2.1596

                    109                    110                    111
                      A                      A                      A
 Frequencies --   3176.7254              3210.7123              3211.7561
 Red. masses --      1.1060                 1.0921                 1.0922
 Frc consts  --      6.5760                 6.6330                 6.6379
 IR Inten    --     37.2626                15.0324                13.3658

 - Thermochemistry -
 -------------------
 Temperature   298.150 Kelvin.  Pressure   1.00000 Atm.
 Atom     1 has atomic number  6 and mass  12.00000

 Molecular mass:   417.13959 amu.
 Principal axes and moments of inertia in atomic units:
                           1         2         3
     Eigenvalues --  3422.939105218.630017797.31000
           X            0.99997  -0.00000   0.00804
           Y            0.00000   1.00000   0.00000
           Z           -0.00804  -0.00000   0.99997
 This molecule is an asymmetric top.
 Rotational symmetry number  1.
 Warning -- assumption of classical behavior for rotation
           may cause significant error
 Rotational temperatures (Kelvin)      0.02530     0.01660     0.01111
 Rotational constants (GHZ):           0.52725     0.34583     0.23146
    1 imaginary frequencies ignored.
 Zero-point vibrational energy     879603.6 (Joules/Mol)
                                  210.23030 (Kcal/Mol)
 Warning -- explicit consideration of  32 degrees of freedom as
           vibrations may cause significant error
 Vibrational temperatures:     81.15    87.20   100.39   164.54   190.43
          (Kelvin)            233.24   251.17   278.92   298.39   305.46
                              343.07   350.76   382.80   384.91   402.56
                              406.23   421.77   422.77   458.04   461.38
                              523.18   592.50   600.76   664.70   701.90
                              717.13   747.38   767.56   771.74   776.62
                              810.53   889.90   913.16  1004.84  1051.04
                             1090.05  1228.29  1253.30  1284.51  1284.61
                             1346.58  1397.51  1427.07  1433.39  1435.32
                             1435.72  1460.31  1510.62  1513.00  1519.27
                             1611.99  1628.40  1633.13  1697.02  1702.46
                             1741.91  1744.79  1759.71  1764.45  1818.76
                             1839.83  1845.71  1852.22  1899.90  1903.19
                             1998.11  2011.61  2058.53  2084.66  2085.76
                             2113.66  2116.55  2119.38  2126.99  2136.61
                             2137.51  2140.29  2144.43  2159.24  2159.31
                             2166.41  2169.76  2169.78  2170.48  2225.19
                             2275.51  2321.02  2412.74  3321.57  4350.16
                             4365.51  4365.58  4368.07  4370.03  4418.71
                             4419.42  4457.47  4474.69  4493.99  4494.27
                             4509.25  4509.37  4513.94  4514.14  4565.78
                             4565.82  4570.44  4570.60  4619.50  4621.00

 Zero-point correction=                           0.335023 (Hartree/Particle)
 Thermal correction to Energy=                    0.353200
 Thermal correction to Enthalpy=                  0.354145
 Thermal correction to Gibbs Free Energy=         0.289965
 Sum of electronic and zero-point Energies=           -814.154259
 Sum of electronic and thermal Energies=              -814.136081
 Sum of electronic and thermal Enthalpies=            -814.135137
 Sum of electronic and thermal Free Energies=         -814.199316

                     E (Thermal)             CV                S
                      KCal/Mol        Cal/Mol-Kelvin    Cal/Mol-Kelvin
 Total                  221.637             71.002            135.077
 Electronic               0.000              0.000              0.000
 Translational            0.889              2.981             43.975
 Rotational               0.889              2.981             33.299
 Vibrational            219.859             65.041             57.803
 Vibration     1          0.596              1.975              4.579
 Vibration     2          0.597              1.973              4.437
 Vibration     3          0.598              1.969              4.160
 Vibration     4          0.607              1.938              3.193
 Vibration     5          0.612              1.921              2.912
 Vibration     6          0.622              1.889              2.525
 Vibration     7          0.627              1.874              2.386
 Vibration     8          0.635              1.848              2.191
 Vibration     9          0.641              1.829              2.067
 Vibration    10          0.643              1.822              2.024
 Vibration    11          0.656              1.782              1.814
 Vibration    12          0.659              1.773              1.775
 Vibration    13          0.672              1.735              1.622
 Vibration    14          0.673              1.733              1.612
 Vibration    15          0.680              1.711              1.535
 Vibration    16          0.681              1.706              1.519
 Vibration    17          0.688              1.687              1.456
 Vibration    18          0.689              1.685              1.452
 Vibration    19          0.705              1.639              1.319
 Vibration    20          0.706              1.634              1.307
 Vibration    21          0.737              1.547              1.107
 Vibration    22          0.776              1.445              0.920
 Vibration    23          0.781              1.432              0.900
 Vibration    24          0.820              1.334              0.760
 Vibration    25          0.844              1.277              0.689
 Vibration    26          0.854              1.253              0.662
 Vibration    27          0.874              1.207              0.611
 Vibration    28          0.888              1.176              0.579
 Vibration    29          0.891              1.170              0.573
 Vibration    30          0.895              1.162              0.566
 Vibration    31          0.919              1.111              0.517
 Vibration    32          0.978              0.993              0.419

                           ! Non-Optimized Parameters !
 Normal termination of Gaussian 16 at Fri Mar  8 15:19:40 2024.
