 Gaussian 16, Revision C.01,
 Gaussian 16:  ES64L-G16RevC.01  3-Jul-2019

 ---------------------------------------------------------------
 # wb97xd def2TZVPP SCRF=(solvent=dichloromethane) opt=qst2 freq
 ---------------------------------------------------------------

 -----------------------
 ts_xyz/ZRhMeH_sigma.xyz
 -----------------------
 Symbolic Z-matrix:
 Charge =  0 Multiplicity = 1

 -----------------
 ts_xyz/ZRhMeH.xyz
 -----------------
 Symbolic Z-matrix:
 Charge =  0 Multiplicity = 1

 SCF Done:  E(RwB97XD) =  -820.642726690     A.U. after   18 cycles
 SCF Done:  E(RwB97XD) =  -820.643146687     A.U. after   14 cycles
 SCF Done:  E(RwB97XD) =  -820.658143594     A.U. after   15 cycles
 SCF Done:  E(RwB97XD) =  -820.670247114     A.U. after   15 cycles
 SCF Done:  E(RwB97XD) =  -820.673935399     A.U. after   15 cycles
 SCF Done:  E(RwB97XD) =  -820.675841863     A.U. after   15 cycles
 SCF Done:  E(RwB97XD) =  -820.676182681     A.U. after   13 cycles
 SCF Done:  E(RwB97XD) =  -820.676238902     A.U. after   11 cycles
 SCF Done:  E(RwB97XD) =  -820.676267405     A.U. after   11 cycles
 SCF Done:  E(RwB97XD) =  -820.676274381     A.U. after   10 cycles
 SCF Done:  E(RwB97XD) =  -820.674762539     A.U. after   14 cycles
 SCF Done:  E(RwB97XD) =  -820.676077604     A.U. after   13 cycles
 SCF Done:  E(RwB97XD) =  -820.676177794     A.U. after   13 cycles
 SCF Done:  E(RwB97XD) =  -820.676209740     A.U. after   13 cycles
 SCF Done:  E(RwB97XD) =  -820.676264746     A.U. after   13 cycles
 SCF Done:  E(RwB97XD) =  -820.676284883     A.U. after   11 cycles
 SCF Done:  E(RwB97XD) =  -820.676284823     A.U. after   10 cycles
 SCF Done:  E(RwB97XD) =  -820.676284690     A.U. after    9 cycles
 SCF Done:  E(RwB97XD) =  -820.676284814     A.U. after    8 cycles
 Optimization completed.
    -- Stationary point found.
 Normal termination of Gaussian 16 at Fri Mar  8 19:03:31 2024.

 ----------------------------------------------------------------------
 #N Geom=AllCheck Guess=TCheck SCRF=Check GenChk RwB97XD/def2TZVPP Freq
 ----------------------------------------------------------------------

 Structure from the checkpoint file:  "QST2_ZRhMeH_sigma_ZRhMeH.chk"
 -----------------------
 ts_xyz/ZRhMeH_sigma.xyz
 -----------------------
 Charge =  0 Multiplicity = 1

                         Standard orientation:
 ---------------------------------------------------------------------
 Center     Atomic      Atomic             Coordinates (Angstroms)
 Number     Number       Type             X           Y           Z
 ---------------------------------------------------------------------
      1          6           0       -1.532297   -1.168960   -0.284211
      2          6           0       -1.532192    1.169131   -0.284060
      3          6           0       -2.861360   -1.220483    0.006299
      4          6           0       -2.861256    1.220730    0.006439
      5          6           0       -3.621710    0.000146    0.177067
      6          1           0       -3.371011   -2.168518    0.115363
      7          1           0       -3.370833    2.168793    0.115602
      8          8           0       -4.837523    0.000183    0.454305
      9          7           0       -0.880512    0.000065   -0.424400
     10          6           0       -0.628344   -2.339569   -0.567683
     11          1           0       -0.542746   -2.432666   -1.650902
     12          1           0       -1.033319   -3.277728   -0.181418
     13          6           0       -0.628168    2.339700   -0.567448
     14          1           0       -0.542764    2.433007   -1.650663
     15          1           0       -1.033020    3.277812   -0.180942
     16          7           0        0.750794   -2.115931   -0.034927
     17          7           0        0.751050    2.115857   -0.034939
     18          6           0        3.027788   -0.000224    0.728541
     19          1           0        2.671041    0.000357    1.765113
     20          1           0        3.658304   -0.880878    0.592876
     21          1           0        3.659147    0.879735    0.592262
     22          6           0        1.698026   -2.970873   -0.764475
     23          1           0        2.692734   -2.836390   -0.347087
     24          1           0        1.415451   -4.025349   -0.680380
     25          1           0        1.712842   -2.681846   -1.812135
     26          6           0        0.772502   -2.480213    1.394613
     27          1           0        0.531517   -3.540380    1.521465
     28          1           0        1.760614   -2.286619    1.803606
     29          1           0        0.041642   -1.883592    1.937179
     30          6           0        1.698319    2.970542   -0.764755
     31          1           0        1.415936    4.025078   -0.680764
     32          1           0        2.693071    2.835932   -0.347507
     33          1           0        1.712902    2.681352   -1.812370
     34          6           0        0.773131    2.480304    1.394548
     35          1           0        1.761310    2.286650    1.803353
     36          1           0        0.532283    3.540509    1.521332
     37          1           0        0.042323    1.883814    1.937326
     38          1           0        2.492144    0.000079   -0.800516
     39         45           0        1.102770   -0.000043   -0.146325
 ---------------------------------------------------------------------

 SCF Done:  E(RwB97XD) =  -820.676284814     A.U. after    1 cycles

 The electronic state is 1-A.
 Alpha  occ. eigenvalues --  -19.18060 -14.49751 -14.49750 -14.44140 -10.33958
 Alpha  occ. eigenvalues --  -10.33094 -10.33091 -10.33003 -10.33003 -10.31536
 Alpha  occ. eigenvalues --  -10.31536 -10.31470 -10.31470 -10.27518 -10.26950
 Alpha  occ. eigenvalues --  -10.26949  -3.30995  -2.07360  -2.06441  -2.04227
 Alpha  occ. eigenvalues --   -1.08914  -1.07562  -1.06208  -1.04265  -0.90444
 Alpha  occ. eigenvalues --   -0.86033  -0.83644  -0.82492  -0.82469  -0.80166
 Alpha  occ. eigenvalues --   -0.77372  -0.72986  -0.72422  -0.70271  -0.66258
 Alpha  occ. eigenvalues --   -0.61111  -0.60325  -0.59151  -0.58629  -0.57777
 Alpha  occ. eigenvalues --   -0.57138  -0.56642  -0.56161  -0.52558  -0.51924
 Alpha  occ. eigenvalues --   -0.50690  -0.50647  -0.49630  -0.49562  -0.48498
 Alpha  occ. eigenvalues --   -0.48282  -0.47871  -0.47517  -0.46799  -0.46640
 Alpha  occ. eigenvalues --   -0.46376  -0.46103  -0.44823  -0.44247  -0.43043
 Alpha  occ. eigenvalues --   -0.41773  -0.39194  -0.37354  -0.33722  -0.32683
 Alpha  occ. eigenvalues --   -0.30992  -0.30443  -0.29762  -0.29136  -0.26379
 Alpha virt. eigenvalues --    0.03548   0.05843   0.07075   0.07484   0.08738
 Alpha virt. eigenvalues --    0.09893   0.10465   0.12382   0.14171   0.14282
 Alpha virt. eigenvalues --    0.15344   0.15759   0.16107   0.16522   0.17073

 Mulliken charges:
               1
     1  C    0.109805
     2  C    0.109888
     3  C   -0.279081
     4  C   -0.279127
     5  C    0.296955
     6  H    0.099066
     7  H    0.099066
     8  O   -0.563077
     9  N   -0.296473
    10  C   -0.065550
    11  H    0.118199
    12  H    0.109989
    13  C   -0.065588
    14  H    0.118194
    15  H    0.109989
    16  N   -0.052305
    17  N   -0.052280
    18  C   -0.521789
    19  H    0.122866
    20  H    0.114301
    21  H    0.114338
    22  C   -0.166959
    23  H    0.103946
    24  H    0.107885
    25  H    0.110524
    26  C   -0.164293
    27  H    0.102583
    28  H    0.111118
    29  H    0.120255
    30  C   -0.166968
    31  H    0.107890
    32  H    0.103954
    33  H    0.110525
    34  C   -0.164303
    35  H    0.111111
    36  H    0.102581
    37  H    0.120256
    38  H   -0.026106
    39  Rh   0.028613
 Sum of Mulliken charges =  -0.00000

 Dipole moment (field-independent basis, Debye):
    X=             12.2966    Y=             -0.0001    Z=             -0.3812  Tot=             12.3025
 Quadrupole moment (field-independent basis, Debye-Ang):
   XX=           -176.5712   YY=            -88.1785   ZZ=           -117.2983
   XY=              0.0043   XZ=              6.1672   YZ=             -0.0000

  Exact polarizability:     344.918      -0.001     275.006      -6.963       0.002     205.044
 Approx polarizability:     273.705      -0.000     224.360      -9.964       0.002     193.342

 ******    1 imaginary frequencies (negative Signs) ******

                      1                      2                      3
                      A                      A                      A
 Frequencies --   -614.2528                54.7366                59.4205
 Red. masses --      1.1738                 3.2842                 4.8243
 Frc consts  --      0.2609                 0.0058                 0.0100
 IR Inten    --    664.2147                 5.2091                 2.1163

                      4                      5                      6
                      A                      A                      A
 Frequencies --     61.6330               133.8776               168.8228
 Red. masses --      3.0795                 3.2508                 1.2020
 Frc consts  --      0.0069                 0.0343                 0.0202
 IR Inten    --      1.0065                 9.8830                 0.3544

                      7                      8                      9
                      A                      A                      A
 Frequencies --    177.5029               181.6868               191.5072
 Red. masses --      3.9396                 2.9133                 4.3150
 Frc consts  --      0.0731                 0.0567                 0.0932
 IR Inten    --      0.8557                 0.3050                 1.9899

                     10                     11                     12
                      A                      A                      A
 Frequencies --    194.8103               217.1701               225.7585
 Red. masses --      1.8603                 3.4208                 4.1877
 Frc consts  --      0.0416                 0.0951                 0.1258
 IR Inten    --      0.3201                 3.3330                 4.1330

                     13                     14                     15
                      A                      A                      A
 Frequencies --    241.3711               246.6320               262.4136
 Red. masses --      4.0328                 2.8638                 3.5939
 Frc consts  --      0.1384                 0.1026                 0.1458
 IR Inten    --      3.9356                 0.3338                 0.6590

                     16                     17                     18
                      A                      A                      A
 Frequencies --    280.0320               282.2084               289.8879
 Red. masses --      1.8802                 2.7197                 1.3126
 Frc consts  --      0.0869                 0.1276                 0.0650
 IR Inten    --      0.4863                 0.1444                 2.2574

                     19                     20                     21
                      A                      A                      A
 Frequencies --    290.7466               307.3605               310.6473
 Red. masses --      1.7054                 1.1147                 1.1310
 Frc consts  --      0.0849                 0.0620                 0.0643
 IR Inten    --      1.0951                 3.5289                 1.0851

                     22                     23                     24
                      A                      A                      A
 Frequencies --    359.1106               404.8801               405.9343
 Red. masses --      4.6273                 2.2728                 2.4544
 Frc consts  --      0.3516                 0.2195                 0.2383
 IR Inten    --     24.8023                 0.3972                 4.7950

                     25                     26                     27
                      A                      A                      A
 Frequencies --    457.5332               480.2398               486.0731
 Red. masses --      2.6768                 2.4532                 2.9384
 Frc consts  --      0.3302                 0.3333                 0.4090
 IR Inten    --      2.8300                30.3057                26.5230

                     28                     29                     30
                      A                      A                      A
 Frequencies --    501.5963               530.4880               532.3852
 Red. masses --      2.6444                 3.6441                 3.6826
 Frc consts  --      0.3920                 0.6042                 0.6150
 IR Inten    --      6.7707                53.7118                 1.2444

                     31                     32                     33
                      A                      A                      A
 Frequencies --    566.0136               603.1162               615.8563
 Red. masses --      3.3526                 6.8320                 1.1884
 Frc consts  --      0.6328                 1.4642                 0.2656
 IR Inten    --     11.9186                 3.3351                 1.8276

                     34                     35                     36
                      A                      A                      A
 Frequencies --    635.9400               699.7442               730.6933
 Red. masses --      3.5781                 5.2546                 3.0875
 Frc consts  --      0.8526                 1.5159                 0.9712
 IR Inten    --      1.7817                 1.0655                 1.0557

                     37                     38                     39
                      A                      A                      A
 Frequencies --    763.6365               837.7730               855.4951
 Red. masses --      2.8753                 1.1563                 1.4618
 Frc consts  --      0.9879                 0.4782                 0.6304
 IR Inten    --      6.8087                38.8153                15.3358

                     40                     41                     42
                      A                      A                      A
 Frequencies --    871.6692               892.8213               892.9414
 Red. masses --      2.6216                 2.6911                 3.0450
 Frc consts  --      1.1736                 1.2639                 1.4305
 IR Inten    --     54.5126                74.7815                31.8779

                     43                     44                     45
                      A                      A                      A
 Frequencies --    915.3891               934.4754               997.1700
 Red. masses --      1.1784                 2.9635                 2.1336
 Frc consts  --      0.5818                 1.5247                 1.2500
 IR Inten    --      3.8749                57.6706                83.4038

                     46                     47                     48
                      A                      A                      A
 Frequencies --    997.5026              1004.4023              1020.1905
 Red. masses --      2.0801                 2.9350                 2.4650
 Frc consts  --      1.2195                 1.7445                 1.5116
 IR Inten    --     13.5716                 8.5663                58.1570

                     49                     50                     51
                      A                      A                      A
 Frequencies --   1053.6294              1056.6437              1057.0703
 Red. masses --      2.4693                 1.6151                 1.9199
 Frc consts  --      1.6151                 1.0625                 1.2639
 IR Inten    --     18.1731                23.9132                 1.1037

                     52                     53                     54
                      A                      A                      A
 Frequencies --   1095.9859              1131.4970              1133.7421
 Red. masses --      4.3996                 1.2627                 1.2622
 Frc consts  --      3.1136                 0.9525                 0.9559
 IR Inten    --    146.0466                 0.3472                 3.4172

                     55                     56                     57
                      A                      A                      A
 Frequencies --   1180.2850              1183.6178              1211.7725
 Red. masses --      1.4446                 1.4461                 1.6224
 Frc consts  --      1.1857                 1.1936                 1.4036
 IR Inten    --      0.0085                13.6565                 0.0034

                     58                     59                     60
                      A                      A                      A
 Frequencies --   1212.3157              1222.7093              1226.6443
 Red. masses --      1.8700                 1.9263                 1.6881
 Frc consts  --      1.6193                 1.6968                 1.4966
 IR Inten    --      7.5840                10.8775                19.3289

                     61                     62                     63
                      A                      A                      A
 Frequencies --   1265.2894              1265.4227              1282.9926
 Red. masses --      5.5359                 1.1628                 2.1093
 Frc consts  --      5.2218                 1.0971                 2.0457
 IR Inten    --      0.0247                16.1820                 2.4149

                     64                     65                     66
                      A                      A                      A
 Frequencies --   1286.2165              1319.0854              1319.9620
 Red. masses --      2.0889                 1.4019                 1.5082
 Frc consts  --      2.0361                 1.4371                 1.5482
 IR Inten    --      2.1062                 1.0773                16.2676

                     67                     68                     69
                      A                      A                      A
 Frequencies --   1389.5497              1398.3358              1429.6307
 Red. masses --      1.4331                 1.4503                 4.0089
 Frc consts  --      1.6303                 1.6708                 4.8275
 IR Inten    --      3.2964                 7.8642               171.5964

                     70                     71                     72
                      A                      A                      A
 Frequencies --   1450.6884              1451.7660              1465.3815
 Red. masses --      1.1489                 1.1577                 1.0640
 Frc consts  --      1.4246                 1.4377                 1.3461
 IR Inten    --      0.8336                 4.8444                 1.7621

                     73                     74                     75
                      A                      A                      A
 Frequencies --   1471.0386              1473.0002              1477.5376
 Red. masses --      1.1260                 1.1449                 1.0743
 Frc consts  --      1.4356                 1.4636                 1.3818
 IR Inten    --      9.1579                13.5661                 1.7614

                     76                     77                     78
                      A                      A                      A
 Frequencies --   1485.9336              1486.3659              1488.7809
 Red. masses --      1.0425                 1.0400                 1.1111
 Frc consts  --      1.3562                 1.3538                 1.4510
 IR Inten    --      0.1861                 0.5340                 4.2085

                     79                     80                     81
                      A                      A                      A
 Frequencies --   1492.2080              1501.0731              1501.6536
 Red. masses --      1.1194                 1.0589                 1.0589
 Frc consts  --      1.4686                 1.4057                 1.4069
 IR Inten    --      1.2419                31.2999                 0.9198

                     82                     83                     84
                      A                      A                      A
 Frequencies --   1506.7058              1508.1588              1508.2186
 Red. masses --      1.0476                 1.0465                 1.0491
 Frc consts  --      1.4012                 1.4024                 1.4060
 IR Inten    --      9.5831                20.0792                43.7970

                     85                     86                     87
                      A                      A                      A
 Frequencies --   1510.0381              1548.3105              1580.0900
 Red. masses --      1.0515                 8.6040                 6.6089
 Frc consts  --      1.4126                12.1525                 9.7216
 IR Inten    --     38.9501               196.7129                23.1091

                     88                     89                     90
                      A                      A                      A
 Frequencies --   1615.2595              1672.6655              2247.0005
 Red. masses --      9.5947                 7.5393                 1.0166
 Frc consts  --     14.7491                12.4279                 3.0242
 IR Inten    --    956.0525               932.4693                16.3798

                     91                     92                     93
                      A                      A                      A
 Frequencies --   3003.3960              3028.8653              3029.0636
 Red. masses --      1.0383                 1.0466                 1.0464
 Frc consts  --      5.5184                 5.6573                 5.6565
 IR Inten    --     60.4898                66.8373                33.0367

                     94                     95                     96
                      A                      A                      A
 Frequencies --   3031.6403              3032.7010              3063.4767
 Red. masses --      1.0457                 1.0459                 1.0610
 Frc consts  --      5.6623                 5.6679                 5.8669
 IR Inten    --    169.8964                26.9876                80.0198

                     97                     98                     99
                      A                      A                      A
 Frequencies --   3064.0351              3086.9789              3110.3775
 Red. masses --      1.0609                 1.0938                 1.1025
 Frc consts  --      5.8686                 6.1413                 6.2840
 IR Inten    --     14.2474                70.0969                51.7005

                    100                    101                    102
                      A                      A                      A
 Frequencies --   3118.5529              3118.7812              3128.2259
 Red. masses --      1.1043                 1.1043                 1.0909
 Frc consts  --      6.3279                 6.3287                 6.2898
 IR Inten    --     14.2167                11.0630                21.2073

                    103                    104                    105
                      A                      A                      A
 Frequencies --   3128.2307              3134.9040              3135.0237
 Red. masses --      1.0909                 1.0879                 1.0879
 Frc consts  --      6.2898                 6.2995                 6.2999
 IR Inten    --     19.2084                13.4413                21.7560

                    106                    107                    108
                      A                      A                      A
 Frequencies --   3171.2615              3171.2734              3175.5167
 Red. masses --      1.1050                 1.1050                 1.1057
 Frc consts  --      6.5476                 6.5476                 6.5692
 IR Inten    --     13.9733                 3.6447                 2.1768

                    109                    110                    111
                      A                      A                      A
 Frequencies --   3175.5970              3209.8511              3210.8730
 Red. masses --      1.1057                 1.0920                 1.0922
 Frc consts  --      6.5695                 6.6291                 6.6342
 IR Inten    --     38.0676                15.9546                12.8781

 - Thermochemistry -
 -------------------
 Temperature   298.150 Kelvin.  Pressure   1.00000 Atm.
 Atom     1 has atomic number  6 and mass  12.00000

 Molecular mass:   327.08109 amu.
 Principal axes and moments of inertia in atomic units:
                           1         2         3
     Eigenvalues --  3418.925734851.415637401.22391
           X            0.99997   0.00001   0.00777
           Y           -0.00001   1.00000  -0.00000
           Z           -0.00777   0.00000   0.99997
 This molecule is an asymmetric top.
 Rotational symmetry number  1.
 Warning -- assumption of classical behavior for rotation
           may cause significant error
 Rotational temperatures (Kelvin)      0.02533     0.01785     0.01170
 Rotational constants (GHZ):           0.52787     0.37200     0.24384
    1 imaginary frequencies ignored.
 Zero-point vibrational energy     877246.7 (Joules/Mol)
                                  209.66699 (Kcal/Mol)
 Warning -- explicit consideration of  32 degrees of freedom as
           vibrations may cause significant error
 Vibrational temperatures:     78.75    85.49    88.68   192.62   242.90
          (Kelvin)            255.39   261.41   275.54   280.29   312.46
                              324.82   347.28   354.85   377.55   402.90
                              406.03   417.08   418.32   442.22   446.95
                              516.68   582.53   584.05   658.29   690.96
                              699.35   721.69   763.25   765.98   814.37
                              867.75   886.08   914.98  1006.78  1051.30
                             1098.70  1205.37  1230.87  1254.14  1284.57
                             1284.74  1317.04  1344.50  1434.71  1435.18
                             1445.11  1467.83  1515.94  1520.27  1520.89
                             1576.88  1627.97  1631.20  1698.17  1702.96
                             1743.47  1744.25  1759.21  1764.87  1820.47
                             1820.66  1845.94  1850.58  1897.87  1899.13
                             1999.25  2011.89  2056.92  2087.22  2088.77
                             2108.36  2116.50  2119.32  2125.85  2137.93
                             2138.55  2142.02  2146.95  2159.71  2160.54
                             2167.81  2169.90  2169.99  2172.61  2227.67
                             2273.40  2324.00  2406.59  3232.93  4321.22
                             4357.86  4358.15  4361.85  4363.38  4407.66
                             4408.46  4441.47  4475.14  4486.90  4487.23
                             4500.82  4500.83  4510.43  4510.60  4562.74
                             4562.76  4568.86  4568.98  4618.26  4619.73

 Zero-point correction=                           0.334126 (Hartree/Particle)
 Thermal correction to Energy=                    0.352351
 Thermal correction to Enthalpy=                  0.353295
 Thermal correction to Gibbs Free Energy=         0.289502
 Sum of electronic and zero-point Energies=           -820.342159
 Sum of electronic and thermal Energies=              -820.323934
 Sum of electronic and thermal Enthalpies=            -820.322989
 Sum of electronic and thermal Free Energies=         -820.386783

                     E (Thermal)             CV                S
                      KCal/Mol        Cal/Mol-Kelvin    Cal/Mol-Kelvin
 Total                  221.104             71.336            134.265
 Electronic               0.000              0.000              0.000
 Translational            0.889              2.981             43.250
 Rotational               0.889              2.981             33.173
 Vibrational            219.326             65.375             57.842
 Vibration     1          0.596              1.976              4.638
 Vibration     2          0.597              1.974              4.476
 Vibration     3          0.597              1.973              4.404
 Vibration     4          0.613              1.920              2.890
 Vibration     5          0.625              1.881              2.449
 Vibration     6          0.628              1.870              2.355
 Vibration     7          0.630              1.865              2.311
 Vibration     8          0.634              1.852              2.213
 Vibration     9          0.635              1.847              2.182
 Vibration    10          0.646              1.815              1.983
 Vibration    11          0.650              1.802              1.912
 Vibration    12          0.658              1.777              1.793
 Vibration    13          0.661              1.768              1.755
 Vibration    14          0.670              1.742              1.646
 Vibration    15          0.680              1.711              1.533
 Vibration    16          0.681              1.707              1.520
 Vibration    17          0.686              1.693              1.475
 Vibration    18          0.687              1.691              1.470
 Vibration    19          0.697              1.660              1.377
 Vibration    20          0.699              1.653              1.359
 Vibration    21          0.734              1.557              1.126
 Vibration    22          0.770              1.460              0.945
 Vibration    23          0.771              1.457              0.941
 Vibration    24          0.816              1.344              0.773
 Vibration    25          0.837              1.294              0.709
 Vibration    26          0.842              1.281              0.694
 Vibration    27          0.857              1.246              0.654
 Vibration    28          0.885              1.183              0.586
 Vibration    29          0.887              1.178              0.582
 Vibration    30          0.922              1.105              0.512
 Vibration    31          0.962              1.025              0.444
 Vibration    32          0.975              0.998              0.423

 Optimization completed.
    -- Stationary point found.
 Normal termination of Gaussian 16 at Fri Mar  8 20:29:47 2024.
