 Gaussian 16, Revision C.01,
 Gaussian 16:  ES64L-G16RevC.01  3-Jul-2019

 ---------------------------------------------------------------
 # wb97xd def2TZVPP SCRF=(solvent=dichloromethane) opt=qst2 freq
 ---------------------------------------------------------------

 ------------------------
 ts_xyz/HZRhMeH_sigma.xyz
 ------------------------
 Symbolic Z-matrix:
 Charge =  1 Multiplicity = 1

 ------------------
 ts_xyz/HZRhMeH.xyz
 ------------------
 Symbolic Z-matrix:
 Charge =  1 Multiplicity = 1

 SCF Done:  E(RwB97XD) =  -821.118196889     A.U. after   18 cycles
 SCF Done:  E(RwB97XD) =  -821.118400249     A.U. after   13 cycles
 SCF Done:  E(RwB97XD) =  -821.126853539     A.U. after   14 cycles
 SCF Done:  E(RwB97XD) =  -821.134676780     A.U. after   14 cycles
 SCF Done:  E(RwB97XD) =  -821.136711462     A.U. after   15 cycles
 SCF Done:  E(RwB97XD) =  -821.137627097     A.U. after   14 cycles
 SCF Done:  E(RwB97XD) =  -821.137796468     A.U. after   13 cycles
 SCF Done:  E(RwB97XD) =  -821.137694007     A.U. after   14 cycles
 SCF Done:  E(RwB97XD) =  -821.137914825     A.U. after   13 cycles
 SCF Done:  E(RwB97XD) =  -821.137230371     A.U. after   14 cycles
 SCF Done:  E(RwB97XD) =  -821.137820987     A.U. after   14 cycles
 SCF Done:  E(RwB97XD) =  -821.137863733     A.U. after   14 cycles
 SCF Done:  E(RwB97XD) =  -821.137961458     A.U. after   13 cycles
 SCF Done:  E(RwB97XD) =  -821.137964397     A.U. after   10 cycles
 SCF Done:  E(RwB97XD) =  -821.137964840     A.U. after    9 cycles
 SCF Done:  E(RwB97XD) =  -821.137944799     A.U. after   11 cycles
 SCF Done:  E(RwB97XD) =  -821.137964281     A.U. after   11 cycles
 SCF Done:  E(RwB97XD) =  -821.137964647     A.U. after    8 cycles
 Optimization completed.
    -- Stationary point found.
 Normal termination of Gaussian 16 at Fri Apr  5 17:19:44 2024.

 ----------------------------------------------------------------------
 #N Geom=AllCheck Guess=TCheck SCRF=Check GenChk RwB97XD/def2TZVPP Freq
 ----------------------------------------------------------------------

 Structure from the checkpoint file:  "QST2_HZRhMeH_sigma_HZRhMeH.chk"
 ------------------------
 ts_xyz/HZRhMeH_sigma.xyz
 ------------------------
 Charge =  1 Multiplicity = 1

                         Standard orientation:
 ---------------------------------------------------------------------
 Center     Atomic      Atomic             Coordinates (Angstroms)
 Number     Number       Type             X           Y           Z
 ---------------------------------------------------------------------
      1          6           0       -1.517851   -1.155083   -0.228226
      2          6           0       -1.501784    1.182170   -0.230163
      3          6           0       -2.875972   -1.189047   -0.007928
      4          6           0       -2.856617    1.237052   -0.009481
      5          6           0       -3.551200    0.029407    0.107995
      6          1           0       -3.405504   -2.128162    0.072349
      7          1           0       -3.383971    2.175732    0.070951
      8          8           0       -4.865165    0.103073    0.330180
      9          7           0       -0.874862    0.007597   -0.322439
     10          6           0       -0.628195   -2.340579   -0.490324
     11          1           0       -0.593972   -2.471966   -1.572670
     12          1           0       -1.032568   -3.258523   -0.059009
     13          6           0       -0.592658    2.351997   -0.494804
     14          1           0       -0.551750    2.477978   -1.577581
     15          1           0       -0.984513    3.277884   -0.069063
     16          7           0        0.772113   -2.117224   -0.019997
     17          7           0        0.802086    2.108335   -0.018071
     18          6           0        3.114855   -0.020640    0.551936
     19          1           0        2.869557   -0.018816    1.620797
     20          1           0        3.718685   -0.905653    0.346838
     21          1           0        3.731435    0.855496    0.346831
     22          6           0        1.681014   -2.972677   -0.801854
     23          1           0        2.692798   -2.849337   -0.425811
     24          1           0        1.393870   -4.024747   -0.715198
     25          1           0        1.651987   -2.670855   -1.845382
     26          6           0        0.863609   -2.490255    1.406769
     27          1           0        0.623675   -3.548925    1.539663
     28          1           0        1.872808   -2.304026    1.763857
     29          1           0        0.166584   -1.892095    1.991027
     30          6           0        1.726483    2.952214   -0.794213
     31          1           0        1.452396    4.007826   -0.708608
     32          1           0        2.734447    2.815548   -0.412571
     33          1           0        1.699301    2.651398   -1.838067
     34          6           0        0.891712    2.477896    1.409710
     35          1           0        1.896109    2.275995    1.771807
     36          1           0        0.666930    3.539819    1.543095
     37          1           0        0.182436    1.889774    1.989468
     38          1           0        2.410600   -0.014941   -0.965722
     39         45           0        1.132253   -0.006632   -0.130960
     40          1           0       -5.257142   -0.771226    0.391832
 ---------------------------------------------------------------------

 SCF Done:  E(RwB97XD) =  -821.137964647     A.U. after    1 cycles

 The electronic state is 1-A.
 Alpha  occ. eigenvalues --  -19.32252 -14.51745 -14.51706 -14.49268 -10.40771
 Alpha  occ. eigenvalues --  -10.37839 -10.37679 -10.35626 -10.35531 -10.33085
 Alpha  occ. eigenvalues --  -10.33046 -10.32866 -10.32803 -10.32767 -10.32511
 Alpha  occ. eigenvalues --  -10.28566  -3.33241  -2.09524  -2.08714  -2.06550
 Alpha  occ. eigenvalues --   -1.21653  -1.11867  -1.08107  -1.07330  -0.94429
 Alpha  occ. eigenvalues --   -0.93768  -0.86433  -0.84332  -0.83969  -0.83931
 Alpha  occ. eigenvalues --   -0.78444  -0.77737  -0.76376  -0.73370  -0.73024
 Alpha  occ. eigenvalues --   -0.67549  -0.65117  -0.62280  -0.61801  -0.60641
 Alpha  occ. eigenvalues --   -0.60511  -0.59487  -0.59219  -0.58476  -0.56244
 Alpha  occ. eigenvalues --   -0.54559  -0.54059  -0.53411  -0.52726  -0.51856
 Alpha  occ. eigenvalues --   -0.51701  -0.50739  -0.50301  -0.49676  -0.49603
 Alpha  occ. eigenvalues --   -0.48342  -0.48289  -0.47983  -0.47330  -0.47155
 Alpha  occ. eigenvalues --   -0.46465  -0.43823  -0.41808  -0.39313  -0.38042
 Alpha  occ. eigenvalues --   -0.37522  -0.33979  -0.32684  -0.31957  -0.29591
 Alpha virt. eigenvalues --   -0.00438   0.01159   0.04029   0.05402   0.07429
 Alpha virt. eigenvalues --    0.08087   0.09360   0.10499   0.11272   0.12589
 Alpha virt. eigenvalues --    0.13068   0.13873   0.14178   0.14312   0.15299

 Mulliken charges:
               1
     1  C    0.104429
     2  C    0.128142
     3  C   -0.166210
     4  C   -0.182148
     5  C    0.285134
     6  H    0.121179
     7  H    0.132872
     8  O   -0.272426
     9  N   -0.222359
    10  C   -0.056190
    11  H    0.127071
    12  H    0.120696
    13  C   -0.053278
    14  H    0.126660
    15  H    0.121322
    16  N   -0.065912
    17  N   -0.065695
    18  C   -0.528639
    19  H    0.127024
    20  H    0.119581
    21  H    0.119867
    22  C   -0.166038
    23  H    0.107823
    24  H    0.113651
    25  H    0.112861
    26  C   -0.154793
    27  H    0.107559
    28  H    0.115661
    29  H    0.118519
    30  C   -0.166173
    31  H    0.113733
    32  H    0.107694
    33  H    0.112768
    34  C   -0.154999
    35  H    0.115407
    36  H    0.107910
    37  H    0.118642
    38  H   -0.010633
    39  Rh   0.059262
    40  H    0.220030
 Sum of Mulliken charges =   1.00000

 Dipole moment (field-independent basis, Debye):
    X=             -3.9766    Y=             -1.6352    Z=              0.7423  Tot=              4.3633
 Quadrupole moment (field-independent basis, Debye-Ang):
   XX=            -89.8088   YY=            -76.3515   ZZ=           -112.6781
   XY=              9.2337   XZ=             -0.4069   YZ=             -0.6988

  Exact polarizability:     318.249       1.113     272.569      -0.994      -0.168     194.691
 Approx polarizability:     256.216       0.421     227.876      -5.303      -0.061     185.173

 ******    1 imaginary frequencies (negative Signs) ******

                      1                      2                      3
                      A                      A                      A
 Frequencies --   -556.6581                46.2420                51.9652
 Red. masses --      1.1985                 3.0145                 3.5486
 Frc consts  --      0.2188                 0.0038                 0.0056
 IR Inten    --    467.0554                 0.1159                 2.2316

                      4                      5                      6
                      A                      A                      A
 Frequencies --     76.8479               145.8764               172.3717
 Red. masses --      3.7770                 2.8106                 1.7618
 Frc consts  --      0.0131                 0.0352                 0.0308
 IR Inten    --      2.3729                 2.8155                 0.1540

                      7                      8                      9
                      A                      A                      A
 Frequencies --    174.3289               183.3338               199.1407
 Red. masses --      3.9083                 2.3749                 1.8015
 Frc consts  --      0.0700                 0.0470                 0.0421
 IR Inten    --      2.0394                 0.7004                 0.5635

                     10                     11                     12
                      A                      A                      A
 Frequencies --    201.2106               209.6589               235.6107
 Red. masses --      3.5169                 2.1930                 3.6736
 Frc consts  --      0.0839                 0.0568                 0.1202
 IR Inten    --      0.5683                 2.6891                 2.8634

                     13                     14                     15
                      A                      A                      A
 Frequencies --    241.8800               257.3957               258.4762
 Red. masses --      3.5421                 3.6453                 3.7445
 Frc consts  --      0.1221                 0.1423                 0.1474
 IR Inten    --      2.7255                 1.0621                 1.1432

                     16                     17                     18
                      A                      A                      A
 Frequencies --    274.2500               280.1907               286.0426
 Red. masses --      3.5870                 2.9374                 1.3333
 Frc consts  --      0.1590                 0.1359                 0.0643
 IR Inten    --      3.2602                 2.6975                 0.7927

                     19                     20                     21
                      A                      A                      A
 Frequencies --    288.3350               305.7446               308.6293
 Red. masses --      1.1523                 1.1251                 1.1231
 Frc consts  --      0.0564                 0.0620                 0.0630
 IR Inten    --      1.9994                 2.3795                 0.4528

                     22                     23                     24
                      A                      A                      A
 Frequencies --    350.3721               394.0910               401.6458
 Red. masses --      4.1931                 2.3108                 2.2626
 Frc consts  --      0.3033                 0.2114                 0.2151
 IR Inten    --      8.3042                 3.6031                 0.3563

                     25                     26                     27
                      A                      A                      A
 Frequencies --    448.9171               473.3019               475.5874
 Red. masses --      2.5400                 1.4250                 1.6279
 Frc consts  --      0.3016                 0.1881                 0.2169
 IR Inten    --     12.7954                90.2360                73.5490

                     28                     29                     30
                      A                      A                      A
 Frequencies --    490.5436               500.0963               518.5252
 Red. masses --      2.8773                 2.7180                 3.1272
 Frc consts  --      0.4079                 0.4005                 0.4954
 IR Inten    --     11.6643                 7.3769                18.8913

                     31                     32                     33
                      A                      A                      A
 Frequencies --    546.0485               562.6632               602.7863
 Red. masses --      3.4728                 3.2083                 6.4772
 Frc consts  --      0.6101                 0.5984                 1.3866
 IR Inten    --     50.8392                12.3392                 4.1231

                     34                     35                     36
                      A                      A                      A
 Frequencies --    611.7440               627.1400               698.6988
 Red. masses --      1.1923                 3.9309                 5.2763
 Frc consts  --      0.2629                 0.9109                 1.5176
 IR Inten    --      0.4238                 1.8087                 2.3559

                     37                     38                     39
                      A                      A                      A
 Frequencies --    721.4727               767.1942               838.1541
 Red. masses --      3.5744                 3.1693                 1.1630
 Frc consts  --      1.0962                 1.0991                 0.4814
 IR Inten    --      1.9382                 4.5812                29.0924

                     40                     41                     42
                      A                      A                      A
 Frequencies --    872.8929               878.6926               900.8080
 Red. masses --      2.0509                 2.6354                 1.1919
 Frc consts  --      0.9207                 1.1989                 0.5698
 IR Inten    --     40.8740                30.9602                 1.4332

                     43                     44                     45
                      A                      A                      A
 Frequencies --    903.1600               909.9108               971.4977
 Red. masses --      2.0370                 1.9107                 2.5397
 Frc consts  --      0.9790                 0.9320                 1.4123
 IR Inten    --     51.1494                40.3481                30.8957

                     46                     47                     48
                      A                      A                      A
 Frequencies --    993.3646              1003.8549              1012.0240
 Red. masses --      2.2284                 2.8066                 2.5710
 Frc consts  --      1.2956                 1.6664                 1.5515
 IR Inten    --     17.8195                 4.8783                23.0071

                     49                     50                     51
                      A                      A                      A
 Frequencies --   1027.4837              1053.3628              1054.9814
 Red. masses --      2.6514                 1.8232                 1.6712
 Frc consts  --      1.6492                 1.1919                 1.0959
 IR Inten    --     42.7477                 9.1160                18.4204

                     52                     53                     54
                      A                      A                      A
 Frequencies --   1058.1505              1085.8323              1132.0780
 Red. masses --      2.7385                 6.0186                 1.2617
 Frc consts  --      1.8066                 4.1809                 0.9527
 IR Inten    --      8.4731                95.0289                 0.3919

                     55                     56                     57
                      A                      A                      A
 Frequencies --   1134.4183              1181.6688              1187.8930
 Red. masses --      1.2616                 1.4794                 1.5605
 Frc consts  --      0.9566                 1.2171                 1.2974
 IR Inten    --      3.0437               164.4892                 7.4695

                     58                     59                     60
                      A                      A                      A
 Frequencies --   1191.6306              1206.7535              1220.5770
 Red. masses --      1.5341                 1.4739                 1.7320
 Frc consts  --      1.2835                 1.2646                 1.5203
 IR Inten    --     47.0941                 2.9867                32.5093

                     61                     62                     63
                      A                      A                      A
 Frequencies --   1224.1256              1245.8390              1266.9730
 Red. masses --      1.8789                 1.6443                 1.1677
 Frc consts  --      1.6588                 1.5036                 1.1044
 IR Inten    --      6.5387                55.9678                13.0253

                     64                     65                     66
                      A                      A                      A
 Frequencies --   1281.2675              1285.4104              1320.5522
 Red. masses --      2.0151                 2.0510                 1.4760
 Frc consts  --      1.9491                 1.9967                 1.5166
 IR Inten    --      2.0925                 3.2921                15.2202

                     67                     68                     69
                      A                      A                      A
 Frequencies --   1323.6154              1351.6848              1385.0333
 Red. masses --      1.4408                 2.8208                 1.7747
 Frc consts  --      1.4873                 3.0365                 2.0058
 IR Inten    --      1.9547                66.7936                55.7351

                     70                     71                     72
                      A                      A                      A
 Frequencies --   1406.7787              1424.6723              1451.3835
 Red. masses --      1.5738                 3.8802                 1.1425
 Frc consts  --      1.8351                 4.6401                 1.4179
 IR Inten    --     51.9881               128.5599                 0.8662

                     73                     74                     75
                      A                      A                      A
 Frequencies --   1452.9534              1465.4551              1471.0251
 Red. masses --      1.1536                 1.0718                 1.1215
 Frc consts  --      1.4348                 1.3561                 1.4298
 IR Inten    --      3.7111                 1.3165                13.9465

                     76                     77                     78
                      A                      A                      A
 Frequencies --   1473.0228              1476.1639              1485.6157
 Red. masses --      1.1053                 1.0686                 1.1506
 Frc consts  --      1.4130                 1.3719                 1.4963
 IR Inten    --     17.1369                 5.4508                 5.8503

                     79                     80                     81
                      A                      A                      A
 Frequencies --   1486.2928              1486.6038              1491.5091
 Red. masses --      1.0433                 1.0435                 1.1399
 Frc consts  --      1.3580                 1.3587                 1.4941
 IR Inten    --      0.5831                 0.8279                 1.5710

                     82                     83                     84
                      A                      A                      A
 Frequencies --   1500.6291              1501.4322              1508.1516
 Red. masses --      1.0573                 1.0578                 1.1151
 Frc consts  --      1.4028                 1.4049                 1.4944
 IR Inten    --      6.5881                19.8587                57.5820

                     85                     86                     87
                      A                      A                      A
 Frequencies --   1508.6439              1509.9356              1510.9077
 Red. masses --      1.0688                 1.0500                 1.0518
 Frc consts  --      1.4333                 1.4104                 1.4147
 IR Inten    --     35.0570                21.4400                41.9170

                     88                     89                     90
                      A                      A                      A
 Frequencies --   1515.1224              1543.9826              1658.0126
 Red. masses --      2.8389                 3.9716                 7.8577
 Frc consts  --      3.8396                 5.5782                12.7269
 IR Inten    --    114.5566                10.6318               175.6398

                     91                     92                     93
                      A                      A                      A
 Frequencies --   1684.6955              2291.2465              3003.5792
 Red. masses --      6.7460                 1.0166                 1.0405
 Frc consts  --     11.2809                 3.1444                 5.5307
 IR Inten    --    450.8319                52.6011                45.9888

                     94                     95                     96
                      A                      A                      A
 Frequencies --   3039.4175              3039.8884              3040.7730
 Red. masses --      1.0448                 1.0440                 1.0420
 Frc consts  --      5.6869                 5.6844                 5.6768
 IR Inten    --     92.3856                36.6559                76.8120

                     97                     98                     99
                      A                      A                      A
 Frequencies --   3042.0088              3069.6339              3070.7445
 Red. masses --      1.0423                 1.0602                 1.0600
 Frc consts  --      5.6827                 5.8858                 5.8891
 IR Inten    --     35.9341                27.2434                20.5125

                    100                    101                    102
                      A                      A                      A
 Frequencies --   3093.3068              3119.9432              3121.0036
 Red. masses --      1.0911                 1.1029                 1.1054
 Frc consts  --      6.1513                 6.3251                 6.3441
 IR Inten    --     71.0833                42.6260                13.6670

                    103                    104                    105
                      A                      A                      A
 Frequencies --   3121.9748              3129.9430              3130.3226
 Red. masses --      1.1054                 1.0960                 1.0963
 Frc consts  --      6.3478                 6.3261                 6.3294
 IR Inten    --      9.9458                22.8554                20.8387

                    106                    107                    108
                      A                      A                      A
 Frequencies --   3141.5270              3141.6362              3172.5884
 Red. masses --      1.0909                 1.0907                 1.1045
 Frc consts  --      6.3432                 6.3429                 6.5502
 IR Inten    --     12.2212                14.9514                 8.5987

                    109                    110                    111
                      A                      A                      A
 Frequencies --   3172.6756              3181.0672              3181.2637
 Red. masses --      1.1045                 1.1061                 1.1061
 Frc consts  --      6.5506                 6.5947                 6.5954
 IR Inten    --      8.5326                10.5600                17.2189

                    112                    113                    114
                      A                      A                      A
 Frequencies --   3226.0107              3242.6653              3875.6338
 Red. masses --      1.0936                 1.0939                 1.0663
 Frc consts  --      6.7056                 6.7771                 9.4366
 IR Inten    --      2.6560                 0.4400               215.1037

 - Thermochemistry -
 -------------------
 Temperature   298.150 Kelvin.  Pressure   1.00000 Atm.
 Atom     1 has atomic number  6 and mass  12.00000

 Molecular mass:   328.08891 amu.
 Principal axes and moments of inertia in atomic units:
                           1         2         3
     Eigenvalues --  3394.233664995.670327569.06086
           X            0.99994   0.01000   0.00431
           Y           -0.00999   0.99995  -0.00040
           Z           -0.00432   0.00036   0.99999
 This molecule is an asymmetric top.
 Rotational symmetry number  1.
 Warning -- assumption of classical behavior for rotation
           may cause significant error
 Rotational temperatures (Kelvin)      0.02552     0.01734     0.01144
 Rotational constants (GHZ):           0.53171     0.36126     0.23844
    1 imaginary frequencies ignored.
 Zero-point vibrational energy     912474.9 (Joules/Mol)
                                  218.08674 (Kcal/Mol)
 Warning -- explicit consideration of  33 degrees of freedom as
           vibrations may cause significant error
 Vibrational temperatures:     66.53    74.77   110.57   209.88   248.00
          (Kelvin)            250.82   263.78   286.52   289.50   301.65
                              338.99   348.01   370.34   371.89   394.58
                              403.13   411.55   414.85   439.90   444.05
                              504.11   567.01   577.88   645.89   680.98
                              684.26   705.78   719.53   746.04   785.64
                              809.55   867.28   880.16   902.31  1005.27
                             1038.04  1103.82  1205.92  1255.90  1264.24
                             1296.06  1299.45  1309.16  1397.77  1429.23
                             1444.32  1456.08  1478.32  1515.55  1517.88
                             1522.44  1562.27  1628.81  1632.17  1700.16
                             1709.11  1714.49  1736.25  1756.14  1761.24
                             1792.48  1822.89  1843.46  1849.42  1899.98
                             1904.39  1944.77  1992.75  2024.04  2049.79
                             2088.22  2090.48  2108.46  2116.48  2119.35
                             2123.87  2137.47  2138.44  2138.89  2145.95
                             2159.07  2160.23  2169.89  2170.60  2172.46
                             2173.86  2179.92  2221.45  2385.51  2423.90
                             3296.59  4321.48  4373.04  4373.72  4374.99
                             4376.77  4416.52  4418.12  4450.58  4488.90
                             4490.43  4491.83  4503.29  4503.84  4519.96
                             4520.11  4564.65  4564.77  4576.85  4577.13
                             4641.51  4665.47  5576.17

 Zero-point correction=                           0.347543 (Hartree/Particle)
 Thermal correction to Energy=                    0.366018
 Thermal correction to Enthalpy=                  0.366962
 Thermal correction to Gibbs Free Energy=         0.302784
 Sum of electronic and zero-point Energies=           -820.790421
 Sum of electronic and thermal Energies=              -820.771947
 Sum of electronic and thermal Enthalpies=            -820.771002
 Sum of electronic and thermal Free Energies=         -820.835181

                     E (Thermal)             CV                S
                      KCal/Mol        Cal/Mol-Kelvin    Cal/Mol-Kelvin
 Total                  229.680             72.789            135.076
 Electronic               0.000              0.000              0.000
 Translational            0.889              2.981             43.260
 Rotational               0.889              2.981             33.217
 Vibrational            227.902             66.828             58.599
 Vibration     1          0.595              1.979              4.972
 Vibration     2          0.596              1.977              4.741
 Vibration     3          0.599              1.965              3.970
 Vibration     4          0.617              1.907              2.725
 Vibration     5          0.626              1.876              2.409
 Vibration     6          0.627              1.874              2.388
 Vibration     7          0.631              1.863              2.294
 Vibration     8          0.637              1.841              2.141
 Vibration     9          0.638              1.838              2.122
 Vibration    10          0.642              1.826              2.047
 Vibration    11          0.655              1.786              1.836
 Vibration    12          0.658              1.776              1.789
 Vibration    13          0.667              1.750              1.679
 Vibration    14          0.667              1.748              1.672
 Vibration    15          0.677              1.721              1.569
 Vibration    16          0.680              1.710              1.533
 Vibration    17          0.684              1.700              1.497
 Vibration    18          0.685              1.695              1.484
 Vibration    19          0.696              1.663              1.385
 Vibration    20          0.698              1.657              1.370
 Vibration    21          0.727              1.574              1.165
 Vibration    22          0.761              1.483              0.985
 Vibration    23          0.767              1.467              0.957
 Vibration    24          0.808              1.363              0.799
 Vibration    25          0.830              1.309              0.728
 Vibration    26          0.832              1.304              0.722
 Vibration    27          0.846              1.271              0.682
 Vibration    28          0.856              1.250              0.658
 Vibration    29          0.874              1.209              0.613
 Vibration    30          0.901              1.148              0.552
 Vibration    31          0.918              1.112              0.519
 Vibration    32          0.961              1.026              0.445
 Vibration    33          0.971              1.007              0.430

 Optimization completed.
    -- Stationary point found.
 Normal termination of Gaussian 16 at Fri Apr  5 18:46:45 2024.
