 Gaussian 16, Revision C.01,
 Gaussian 16:  ES64L-G16RevC.01  3-Jul-2019

 ---------------------------------------------------------------
 # wb97xd def2TZVPP SCRF=(solvent=dichloromethane) opt=qst2 freq
 ---------------------------------------------------------------

 ------------------------
 ts_xyz/HZIrMeH_sigma.xyz
 ------------------------
 Symbolic Z-matrix:
 Charge =  1 Multiplicity = 1

 ------------------
 ts_xyz/HZIrMeH.xyz
 ------------------
 Symbolic Z-matrix:
 Charge =  1 Multiplicity = 1

 SCF Done:  E(RwB97XD) =  -814.944920538     A.U. after   17 cycles
 SCF Done:  E(RwB97XD) =  -814.941339266     A.U. after   14 cycles
 SCF Done:  E(RwB97XD) =  -814.944706059     A.U. after   15 cycles
 SCF Done:  E(RwB97XD) =  -814.947627911     A.U. after   15 cycles
 SCF Done:  E(RwB97XD) =  -814.949119072     A.U. after   12 cycles
 SCF Done:  E(RwB97XD) =  -814.950778941     A.U. after   15 cycles
 SCF Done:  E(RwB97XD) =  -814.951033178     A.U. after   12 cycles
 SCF Done:  E(RwB97XD) =  -814.951081577     A.U. after   11 cycles
 SCF Done:  E(RwB97XD) =  -814.951145689     A.U. after   12 cycles
 SCF Done:  E(RwB97XD) =  -814.951154141     A.U. after   10 cycles
 SCF Done:  E(RwB97XD) =  -814.951161069     A.U. after   10 cycles
 SCF Done:  E(RwB97XD) =  -814.950409564     A.U. after   13 cycles
 SCF Done:  E(RwB97XD) =  -814.951091242     A.U. after   13 cycles
 SCF Done:  E(RwB97XD) =  -814.951153364     A.U. after   12 cycles
 SCF Done:  E(RwB97XD) =  -814.951161495     A.U. after   10 cycles
 SCF Done:  E(RwB97XD) =  -814.951161742     A.U. after    8 cycles
 SCF Done:  E(RwB97XD) =  -814.951161935     A.U. after    7 cycles
 SCF Done:  E(RwB97XD) =  -814.951161787     A.U. after    8 cycles
 SCF Done:  E(RwB97XD) =  -814.951161963     A.U. after    7 cycles
 Optimization completed.
    -- Stationary point found.
 Normal termination of Gaussian 16 at Fri Apr  5 11:55:21 2024.

 ----------------------------------------------------------------------
 #N Geom=AllCheck Guess=TCheck SCRF=Check GenChk RwB97XD/def2TZVPP Freq
 ----------------------------------------------------------------------

 Structure from the checkpoint file:  "QST2_HZIrMeH_sigma_HZIrMeH.chk"
 ------------------------
 ts_xyz/HZIrMeH_sigma.xyz
 ------------------------
 Charge =  1 Multiplicity = 1

                         Standard orientation:
 ---------------------------------------------------------------------
 Center     Atomic      Atomic             Coordinates (Angstroms)
 Number     Number       Type             X           Y           Z
 ---------------------------------------------------------------------
      1          6           0       -1.683423   -1.184040   -0.181746
      2          6           0       -1.697571    1.157716   -0.180612
      3          6           0       -3.043037   -1.234468    0.001003
      4          6           0       -3.060501    1.189584    0.000892
      5          6           0       -3.739713   -0.027196    0.102953
      6          1           0       -3.573031   -2.173203    0.059714
      7          1           0       -3.591020    2.129746    0.057699
      8          8           0       -5.059321   -0.099693    0.290400
      9          7           0       -1.049043   -0.007678   -0.248309
     10          6           0       -0.779288   -2.355739   -0.448269
     11          1           0       -0.756204   -2.490393   -1.530414
     12          1           0       -1.164818   -3.276132   -0.007575
     13          6           0       -0.810794    2.343428   -0.444043
     14          1           0       -0.793539    2.483372   -1.525621
     15          1           0       -1.207474    3.256506    0.002036
     16          7           0        0.627901   -2.109607    0.003147
     17          7           0        0.601244    2.115245    0.001731
     18          6           0        3.012235    0.018908    0.562159
     19          1           0        2.728699    0.014754    1.619648
     20          1           0        3.639631   -0.855910    0.383677
     21          1           0        3.624644    0.904865    0.386240
     22          6           0        1.537329   -2.930105   -0.820721
     23          1           0        2.552847   -2.801461   -0.456342
     24          1           0        1.266253   -3.987504   -0.758126
     25          1           0        1.485228   -2.597607   -1.853800
     26          6           0        0.752638   -2.538055    1.415407
     27          1           0        0.548811   -3.608454    1.503593
     28          1           0        1.760771   -2.333808    1.765298
     29          1           0        0.045892   -1.986331    2.031297
     30          6           0        1.497182    2.945578   -0.827129
     31          1           0        1.214891    4.000000   -0.763633
     32          1           0        2.515856    2.828121   -0.467954
     33          1           0        1.443638    2.611961   -1.859780
     34          6           0        0.727193    2.546353    1.413132
     35          1           0        1.739661    2.355479    1.757971
     36          1           0        0.509934    3.614094    1.501898
     37          1           0        0.031183    1.985237    2.032731
     38          1           0        2.386921    0.012756   -0.751041
     39         77           0        0.934849    0.004662   -0.099319
     40          1           0       -5.451739    0.774990    0.342703
 ---------------------------------------------------------------------

 SCF Done:  E(RwB97XD) =  -814.951161963     A.U. after    1 cycles

 The electronic state is 1-A.
 Alpha  occ. eigenvalues --  -19.32242 -14.52360 -14.52320 -14.50376 -10.40752
 Alpha  occ. eigenvalues --  -10.37980 -10.37824 -10.35763 -10.35669 -10.33055
 Alpha  occ. eigenvalues --  -10.33016 -10.32929 -10.32873 -10.32840 -10.32578
 Alpha  occ. eigenvalues --  -10.29703  -3.76549  -2.10936  -2.10159  -2.07730
 Alpha  occ. eigenvalues --   -1.21640  -1.12283  -1.08266  -1.07608  -0.94652
 Alpha  occ. eigenvalues --   -0.94002  -0.86622  -0.84404  -0.83973  -0.83940
 Alpha  occ. eigenvalues --   -0.80256  -0.77933  -0.76593  -0.73658  -0.73339
 Alpha  occ. eigenvalues --   -0.67748  -0.65567  -0.62738  -0.62202  -0.60787
 Alpha  occ. eigenvalues --   -0.60635  -0.59610  -0.59329  -0.58668  -0.56512
 Alpha  occ. eigenvalues --   -0.54906  -0.54476  -0.54119  -0.52902  -0.52449
 Alpha  occ. eigenvalues --   -0.52002  -0.51366  -0.50485  -0.50353  -0.49811
 Alpha  occ. eigenvalues --   -0.48816  -0.48336  -0.48286  -0.48068  -0.47374
 Alpha  occ. eigenvalues --   -0.46655  -0.45003  -0.43374  -0.39773  -0.38480
 Alpha  occ. eigenvalues --   -0.37587  -0.31272  -0.30801  -0.29585  -0.27729
 Alpha virt. eigenvalues --   -0.00349   0.01093   0.06103   0.07513   0.08589
 Alpha virt. eigenvalues --    0.10202   0.10410   0.10770   0.12351   0.13324
 Alpha virt. eigenvalues --    0.13903   0.13982   0.14177   0.14553   0.15246

 Mulliken charges:
               1
     1  C    0.126403
     2  C    0.099514
     3  C   -0.193626
     4  C   -0.178369
     5  C    0.282389
     6  H    0.132708
     7  H    0.120724
     8  O   -0.272713
     9  N   -0.189434
    10  C   -0.071045
    11  H    0.129655
    12  H    0.124718
    13  C   -0.072266
    14  H    0.129992
    15  H    0.124162
    16  N   -0.077808
    17  N   -0.078325
    18  C   -0.482650
    19  H    0.128075
    20  H    0.121059
    21  H    0.120500
    22  C   -0.180494
    23  H    0.106943
    24  H    0.118012
    25  H    0.114334
    26  C   -0.203676
    27  H    0.109981
    28  H    0.119243
    29  H    0.123171
    30  C   -0.180487
    31  H    0.117935
    32  H    0.107173
    33  H    0.114389
    34  C   -0.203483
    35  H    0.119440
    36  H    0.109721
    37  H    0.123098
    38  H    0.075055
    39  Ir   0.065980
    40  H    0.220002
 Sum of Mulliken charges =   1.00000

 Dipole moment (field-independent basis, Debye):
    X=             -4.4106    Y=              1.6365    Z=              0.9342  Tot=              4.7963
 Quadrupole moment (field-independent basis, Debye-Ang):
   XX=            -87.9230   YY=            -77.7241   ZZ=           -116.4884
   XY=             -9.5372   XZ=              0.3904   YZ=              0.6107

  Exact polarizability:     337.970      -1.152     277.690       0.604       0.128     204.818
 Approx polarizability:     272.277      -0.426     234.358      -3.588       0.040     194.402

 ******    1 imaginary frequencies (negative Signs) ******

                      1                      2                      3
                      A                      A                      A
 Frequencies --   -781.6230                46.1269                53.9709
 Red. masses --      1.1583                 3.7045                 2.8649
 Frc consts  --      0.4169                 0.0046                 0.0049
 IR Inten    --   1156.5027                 0.1882                 0.5141

                      4                      5                      6
                      A                      A                      A
 Frequencies --     62.6706               125.7706               127.9042
 Red. masses --      3.4838                 1.5029                 3.1712
 Frc consts  --      0.0081                 0.0140                 0.0306
 IR Inten    --      3.4894                 0.5489                 7.0215

                      7                      8                      9
                      A                      A                      A
 Frequencies --    174.1434               175.8852               202.1500
 Red. masses --      1.6946                 3.7740                 3.6987
 Frc consts  --      0.0303                 0.0688                 0.0891
 IR Inten    --      0.4899                 2.7842                 1.3829

                     10                     11                     12
                      A                      A                      A
 Frequencies --    207.2343               211.2397               245.1051
 Red. masses --      2.9438                 2.8369                 3.6585
 Frc consts  --      0.0745                 0.0746                 0.1295
 IR Inten    --      3.6170                 0.1013                 0.7347

                     13                     14                     15
                      A                      A                      A
 Frequencies --    258.0695               263.2706               272.0524
 Red. masses --      4.6188                 3.3780                 2.0708
 Frc consts  --      0.1812                 0.1379                 0.0903
 IR Inten    --      0.3665                 1.2613                 1.6637

                     16                     17                     18
                      A                      A                      A
 Frequencies --    276.0426               283.6384               286.7069
 Red. masses --      3.1278                 2.8644                 1.2084
 Frc consts  --      0.1404                 0.1358                 0.0585
 IR Inten    --      1.9666                 2.7819                 0.6697

                     19                     20                     21
                      A                      A                      A
 Frequencies --    287.4125               314.8682               319.1966
 Red. masses --      1.4280                 1.1091                 1.1619
 Frc consts  --      0.0695                 0.0648                 0.0698
 IR Inten    --      2.2489                 1.9949                 0.6685

                     22                     23                     24
                      A                      A                      A
 Frequencies --    354.1578               403.7138               416.0898
 Red. masses --      4.0754                 2.3308                 2.2559
 Frc consts  --      0.3012                 0.2238                 0.2301
 IR Inten    --      4.4774                 3.1842                 0.7357

                     25                     26                     27
                      A                      A                      A
 Frequencies --    452.6401               458.4194               482.7321
 Red. masses --      2.1497                 1.2279                 2.3439
 Frc consts  --      0.2595                 0.1520                 0.3218
 IR Inten    --     31.3039               122.1584                14.8211

                     28                     29                     30
                      A                      A                      A
 Frequencies --    500.4331               521.7519               528.5542
 Red. masses --      3.0869                 2.8285                 2.6492
 Frc consts  --      0.4555                 0.4537                 0.4361
 IR Inten    --     20.5754                 0.9497                15.6127

                     31                     32                     33
                      A                      A                      A
 Frequencies --    535.7374               540.7341               561.8102
 Red. masses --      3.1432                 1.3078                 2.9764
 Frc consts  --      0.5315                 0.2253                 0.5535
 IR Inten    --     66.0013                 1.1788                15.2646

                     34                     35                     36
                      A                      A                      A
 Frequencies --    619.0039               626.6553               697.9649
 Red. masses --      5.6224                 4.1397                 5.5416
 Frc consts  --      1.2693                 0.9578                 1.5906
 IR Inten    --      0.2219                 2.2563                 2.7261

                     37                     38                     39
                      A                      A                      A
 Frequencies --    721.7600               761.1604               874.0112
 Red. masses --      3.6494                 3.2236                 2.0785
 Frc consts  --      1.1201                 1.1004                 0.9355
 IR Inten    --      2.2503                 4.3948                38.3667

                     40                     41                     42
                      A                      A                      A
 Frequencies --    880.9075               884.1442               904.7371
 Red. masses --      2.6197                 1.1925                 2.0371
 Frc consts  --      1.1977                 0.5492                 0.9824
 IR Inten    --     31.4791                54.4225                43.3298

                     43                     44                     45
                      A                      A                      A
 Frequencies --    912.0761               964.4952               970.3000
 Red. masses --      1.8521                 1.2025                 2.5411
 Frc consts  --      0.9078                 0.6591                 1.4095
 IR Inten    --     37.4048                 4.2000                26.3277

                     46                     47                     48
                      A                      A                      A
 Frequencies --    990.8476               997.6466              1010.1352
 Red. masses --      2.1710                 2.9157                 2.5304
 Frc consts  --      1.2558                 1.7098                 1.5213
 IR Inten    --     13.6610                 9.8421                37.0749

                     49                     50                     51
                      A                      A                      A
 Frequencies --   1024.6943              1048.8271              1050.7093
 Red. masses --      2.7143                 1.7399                 1.6457
 Frc consts  --      1.6792                 1.1277                 1.0704
 IR Inten    --     22.7889                 3.9585                14.3620

                     52                     53                     54
                      A                      A                      A
 Frequencies --   1058.2983              1106.0130              1133.6359
 Red. masses --      3.1717                 6.4799                 1.2607
 Frc consts  --      2.0930                 4.6702                 0.9546
 IR Inten    --     10.2452                65.8012                 0.3761

                     55                     56                     57
                      A                      A                      A
 Frequencies --   1136.9739              1182.5988              1186.1318
 Red. masses --      1.2628                 1.4936                 1.6283
 Frc consts  --      0.9618                 1.2307                 1.3497
 IR Inten    --      2.7415               166.9422                 5.3058

                     58                     59                     60
                      A                      A                      A
 Frequencies --   1191.7020              1207.2458              1220.0282
 Red. masses --      1.5765                 1.4598                 1.6725
 Frc consts  --      1.3191                 1.2535                 1.4668
 IR Inten    --     63.1915                 1.3172                31.4388

                     61                     62                     63
                      A                      A                      A
 Frequencies --   1224.7436              1248.0368              1276.9725
 Red. masses --      1.8336                 1.6418                 1.9903
 Frc consts  --      1.6205                 1.5067                 1.9122
 IR Inten    --      3.7068                54.3003                 1.9072

                     64                     65                     66
                      A                      A                      A
 Frequencies --   1282.0234              1286.9222              1322.9356
 Red. masses --      2.0230                 1.1617                 1.4632
 Frc consts  --      1.9590                 1.1335                 1.5088
 IR Inten    --      1.3138                19.6132                14.2238

                     67                     68                     69
                      A                      A                      A
 Frequencies --   1324.6639              1349.6168              1385.4266
 Red. masses --      1.4244                 2.8061                 1.7257
 Frc consts  --      1.4726                 3.0114                 1.9516
 IR Inten    --      2.4101                69.6200                61.4827

                     70                     71                     72
                      A                      A                      A
 Frequencies --   1405.9812              1421.8269              1451.5797
 Red. masses --      1.5360                 4.0493                 1.1435
 Frc consts  --      1.7889                 4.8231                 1.4196
 IR Inten    --     48.5441                93.6204                 0.3185

                     73                     74                     75
                      A                      A                      A
 Frequencies --   1452.6971              1466.1239              1470.6993
 Red. masses --      1.1527                 1.0632                 1.1341
 Frc consts  --      1.4332                 1.3466                 1.4453
 IR Inten    --      7.4861                 1.6101                10.2318

                     76                     77                     78
                      A                      A                      A
 Frequencies --   1472.7934              1478.5235              1486.0771
 Red. masses --      1.1123                 1.0666                 1.0476
 Frc consts  --      1.4215                 1.3737                 1.3631
 IR Inten    --     14.6686                 9.5001                 1.5987

                     79                     80                     81
                      A                      A                      A
 Frequencies --   1486.3405              1487.8939              1492.4569
 Red. masses --      1.0431                 1.1246                 1.1287
 Frc consts  --      1.3578                 1.4668                 1.4812
 IR Inten    --      2.9616                 4.4418                 4.6210

                     82                     83                     84
                      A                      A                      A
 Frequencies --   1500.3333              1500.5663              1507.1612
 Red. masses --      1.0599                 1.0595                 1.0624
 Frc consts  --      1.4058                 1.4056                 1.4219
 IR Inten    --      9.4197                20.2667                10.0157

                     85                     86                     87
                      A                      A                      A
 Frequencies --   1508.8458              1509.3451              1509.6097
 Red. masses --      1.1264                 1.0755                 1.0592
 Frc consts  --      1.5109                 1.4436                 1.4222
 IR Inten    --      6.6750                91.3061                52.5173

                     88                     89                     90
                      A                      A                      A
 Frequencies --   1515.6563              1546.6555              1654.8714
 Red. masses --      2.5819                 3.9849                 7.7100
 Frc consts  --      3.4945                 5.6164                12.4403
 IR Inten    --    159.0686                 8.5961               145.2160

                     91                     92                     93
                      A                      A                      A
 Frequencies --   1689.5531              2284.4397              3013.1122
 Red. masses --      6.8068                 1.0140                 1.0375
 Frc consts  --     11.4482                 3.1177                 5.5499
 IR Inten    --    437.2500                88.9236                39.3451

                     94                     95                     96
                      A                      A                      A
 Frequencies --   3042.9277              3043.0815              3044.6643
 Red. masses --      1.0428                 1.0428                 1.0433
 Frc consts  --      5.6891                 5.6895                 5.6982
 IR Inten    --     19.0179                22.6096               181.7937

                     97                     98                     99
                      A                      A                      A
 Frequencies --   3045.9540              3076.9230              3077.4686
 Red. masses --      1.0432                 1.0598                 1.0597
 Frc consts  --      5.7027                 5.9114                 5.9133
 IR Inten    --     16.6715                22.3391                16.7364

                    100                    101                    102
                      A                      A                      A
 Frequencies --   3091.8467              3113.3918              3127.8291
 Red. masses --      1.0959                 1.1027                 1.1060
 Frc consts  --      6.1725                 6.2974                 6.3752
 IR Inten    --     67.5840                34.6202                10.3283

                    103                    104                    105
                      A                      A                      A
 Frequencies --   3128.4597              3138.8377              3138.9522
 Red. masses --      1.1060                 1.0943                 1.0941
 Frc consts  --      6.3778                 6.3520                 6.3517
 IR Inten    --      7.0258                 9.2792                28.4776

                    106                    107                    108
                      A                      A                      A
 Frequencies --   3143.8162              3143.9231              3177.8247
 Red. masses --      1.0924                 1.0924                 1.1056
 Frc consts  --      6.3616                 6.3617                 6.5784
 IR Inten    --     16.9496                13.2248                 8.8642

                    109                    110                    111
                      A                      A                      A
 Frequencies --   3178.0357              3181.7618              3181.8924
 Red. masses --      1.1055                 1.1065                 1.1065
 Frc consts  --      6.5788                 6.5996                 6.6004
 IR Inten    --      9.0408                 7.4549                19.3316

                    112                    113                    114
                      A                      A                      A
 Frequencies --   3226.6017              3243.7426              3875.1152
 Red. masses --      1.0938                 1.0940                 1.0664
 Frc consts  --      6.7092                 6.7819                 9.4346
 IR Inten    --      2.9712                 0.5808               228.5161

 - Thermochemistry -
 -------------------
 Temperature   298.150 Kelvin.  Pressure   1.00000 Atm.
 Atom     1 has atomic number  6 and mass  12.00000

 Molecular mass:   418.14741 amu.
 Principal axes and moments of inertia in atomic units:
                           1         2         3
     Eigenvalues --  3408.090975340.633437936.29989
           X            0.99995  -0.00876   0.00543
           Y            0.00876   0.99996   0.00035
           Z           -0.00543  -0.00030   0.99999
 This molecule is an asymmetric top.
 Rotational symmetry number  1.
 Warning -- assumption of classical behavior for rotation
           may cause significant error
 Rotational temperatures (Kelvin)      0.02541     0.01622     0.01091
 Rotational constants (GHZ):           0.52955     0.33793     0.22740
    1 imaginary frequencies ignored.
 Zero-point vibrational energy     913650.7 (Joules/Mol)
                                  218.36776 (Kcal/Mol)
 Warning -- explicit consideration of  33 degrees of freedom as
           vibrations may cause significant error
 Vibrational temperatures:     66.37    77.65    90.17   180.96   184.03
          (Kelvin)            250.55   253.06   290.85   298.16   303.93
                              352.65   371.30   378.79   391.42   397.16
                              408.09   412.51   413.52   453.03   459.25
                              509.55   580.85   598.66   651.25   659.56
                              694.54   720.01   750.68   760.47   770.81
                              778.00   808.32   890.61   901.62  1004.22
                             1038.45  1095.14  1257.51  1267.43  1272.09
                             1301.71  1312.27  1387.69  1396.05  1425.61
                             1435.39  1453.36  1474.31  1509.03  1511.74
                             1522.66  1591.31  1631.05  1635.85  1701.50
                             1706.58  1714.59  1736.96  1755.35  1762.13
                             1795.65  1837.28  1844.55  1851.59  1903.41
                             1905.90  1941.80  1993.32  2022.89  2045.69
                             2088.50  2090.11  2109.43  2116.01  2119.02
                             2127.27  2138.13  2138.51  2140.75  2147.31
                             2158.64  2158.98  2168.47  2170.89  2171.61
                             2171.99  2180.69  2225.29  2380.99  2430.89
                             3286.80  4335.20  4378.09  4378.32  4380.59
                             4382.45  4427.01  4427.79  4448.48  4479.48
                             4500.25  4501.16  4516.09  4516.25  4523.25
                             4523.40  4572.18  4572.48  4577.85  4578.03
                             4642.36  4667.02  5575.43

 Zero-point correction=                           0.347991 (Hartree/Particle)
 Thermal correction to Energy=                    0.366472
 Thermal correction to Enthalpy=                  0.367416
 Thermal correction to Gibbs Free Energy=         0.302552
 Sum of electronic and zero-point Energies=           -814.603171
 Sum of electronic and thermal Energies=              -814.584690
 Sum of electronic and thermal Enthalpies=            -814.583746
 Sum of electronic and thermal Free Energies=         -814.648609

                     E (Thermal)             CV                S
                      KCal/Mol        Cal/Mol-Kelvin    Cal/Mol-Kelvin
 Total                  229.965             72.586            136.517
 Electronic               0.000              0.000              0.000
 Translational            0.889              2.981             43.983
 Rotational               0.889              2.981             33.335
 Vibrational            228.187             66.624             59.200
 Vibration     1          0.595              1.979              4.977
 Vibration     2          0.596              1.976              4.666
 Vibration     3          0.597              1.972              4.371
 Vibration     4          0.611              1.927              3.010
 Vibration     5          0.611              1.925              2.977
 Vibration     6          0.627              1.874              2.390
 Vibration     7          0.628              1.872              2.372
 Vibration     8          0.639              1.837              2.113
 Vibration     9          0.641              1.830              2.068
 Vibration    10          0.643              1.824              2.033
 Vibration    11          0.660              1.771              1.766
 Vibration    12          0.667              1.749              1.675
 Vibration    13          0.670              1.740              1.640
 Vibration    14          0.675              1.725              1.583
 Vibration    15          0.678              1.718              1.558
 Vibration    16          0.682              1.704              1.512
 Vibration    17          0.684              1.698              1.493
 Vibration    18          0.685              1.697              1.489
 Vibration    19          0.702              1.645              1.337
 Vibration    20          0.705              1.637              1.314
 Vibration    21          0.730              1.567              1.148
 Vibration    22          0.769              1.462              0.949
 Vibration    23          0.779              1.435              0.905
 Vibration    24          0.811              1.355              0.788
 Vibration    25          0.816              1.342              0.771
 Vibration    26          0.839              1.288              0.703
 Vibration    27          0.856              1.249              0.657
 Vibration    28          0.877              1.202              0.606
 Vibration    29          0.884              1.187              0.590
 Vibration    30          0.891              1.171              0.575
 Vibration    31          0.896              1.160              0.564
 Vibration    32          0.918              1.114              0.520
 Vibration    33          0.979              0.992              0.418

                           ! Non-Optimized Parameters !
 Normal termination of Gaussian 16 at Fri Apr  5 13:05:12 2024.
