 Gaussian 16, Revision C.01,
 Gaussian 16:  ES64L-G16RevC.01  3-Jul-2019

 ----------------------------------------------------------
 # wb97xd def2TZVPP SCRF=(solvent=dichloromethane) opt freq
 ----------------------------------------------------------

 ------
 ZHIrMe
 ------
 Symbolic Z-matrix:
 Charge =  0 Multiplicity = 1

 SCF Done:  E(RwB97XD) =  -814.434754027     A.U. after   20 cycles
 SCF Done:  E(RwB97XD) =  -814.440494302     A.U. after   15 cycles
 SCF Done:  E(RwB97XD) =  -814.440080704     A.U. after   15 cycles
 SCF Done:  E(RwB97XD) =  -814.440536083     A.U. after   17 cycles
 SCF Done:  E(RwB97XD) =  -814.441045519     A.U. after   15 cycles
 SCF Done:  E(RwB97XD) =  -814.441184080     A.U. after   13 cycles
 SCF Done:  E(RwB97XD) =  -814.441302108     A.U. after   12 cycles
 SCF Done:  E(RwB97XD) =  -814.441415966     A.U. after   14 cycles
 SCF Done:  E(RwB97XD) =  -814.441506432     A.U. after   12 cycles
 SCF Done:  E(RwB97XD) =  -814.441809974     A.U. after   14 cycles
 SCF Done:  E(RwB97XD) =  -814.506455238     A.U. after   11 cycles
 SCF Done:  E(RwB97XD) =  -814.506466333     A.U. after   12 cycles
 SCF Done:  E(RwB97XD) =  -814.506469898     A.U. after   12 cycles
 SCF Done:  E(RwB97XD) =  -814.506471838     A.U. after   10 cycles
 SCF Done:  E(RwB97XD) =  -814.506473159     A.U. after    9 cycles
 SCF Done:  E(RwB97XD) =  -814.506473489     A.U. after    9 cycles
 SCF Done:  E(RwB97XD) =  -814.506473486     A.U. after    8 cycles
 SCF Done:  E(RwB97XD) =  -814.506473466     A.U. after    6 cycles
 SCF Done:  E(RwB97XD) =  -814.506473436     A.U. after    6 cycles
 Optimization completed.
    -- Stationary point found.
 Normal termination of Gaussian 16 at Fri Mar  8 12:22:48 2024.

 ----------------------------------------------------------------------
 #N Geom=AllCheck Guess=TCheck SCRF=Check GenChk RwB97XD/def2TZVPP Freq
 ----------------------------------------------------------------------

 Structure from the checkpoint file:  "ZHIrMe.chk"
 ------
 ZHIrMe
 ------
 Charge =  0 Multiplicity = 1

                         Standard orientation:
 ---------------------------------------------------------------------
 Center     Atomic      Atomic             Coordinates (Angstroms)
 Number     Number       Type             X           Y           Z
 ---------------------------------------------------------------------
      1          6           0       -1.724318   -1.168800   -0.281164
      2          6           0       -1.724312    1.168844   -0.281058
      3          6           0       -3.060066   -1.220796   -0.012171
      4          6           0       -3.060058    1.220822   -0.012054
      5          6           0       -3.822166    0.000008    0.144276
      6          1           0       -3.571282   -2.168408    0.093454
      7          1           0       -3.571269    2.168427    0.093655
      8          8           0       -5.044094   -0.000000    0.403463
      9          7           0       -1.078654    0.000027   -0.411503
     10          6           0       -0.803153   -2.335966   -0.537561
     11          1           0       -0.692910   -2.435307   -1.617791
     12          1           0       -1.207796   -3.273603   -0.153347
     13          6           0       -0.803157    2.336026   -0.537413
     14          1           0       -0.693015    2.435465   -1.617644
     15          1           0       -1.207763    3.273631   -0.153082
     16          7           0        0.576813   -2.112346    0.019154
     17          7           0        0.576866    2.112367    0.019148
     18          6           0        2.949905   -0.000126    0.540231
     19          1           0        2.997475   -0.001261    1.641606
     20          1           0        3.529346   -0.874318    0.216987
     21          1           0        3.528908    0.875030    0.218811
     22          6           0        1.525882   -2.974914   -0.706286
     23          1           0        2.514400   -2.855976   -0.271697
     24          1           0        1.222976   -4.023483   -0.635971
     25          1           0        1.558573   -2.673552   -1.749687
     26          6           0        0.581501   -2.498027    1.447729
     27          1           0        0.326088   -3.554471    1.559038
     28          1           0        1.570151   -2.317677    1.862556
     29          1           0       -0.150655   -1.900936    1.990654
     30          6           0        1.525862    2.974895   -0.706436
     31          1           0        1.222974    4.023469   -0.636126
     32          1           0        2.514432    2.855977   -0.271962
     33          1           0        1.558428    2.673491   -1.749829
     34          6           0        0.581744    2.498079    1.447714
     35          1           0        1.570422    2.317635    1.862438
     36          1           0        0.326449    3.554551    1.559030
     37          1           0       -0.150414    1.901068    1.990722
     38          1           0        1.426259    0.000058   -1.532574
     39         77           0        0.937660   -0.000005   -0.082459
 ---------------------------------------------------------------------

 SCF Done:  E(RwB97XD) =  -814.506473436     A.U. after    1 cycles

 The electronic state is 1-A.
 Alpha  occ. eigenvalues --  -19.17768 -14.50883 -14.50883 -14.44394 -10.33783
 Alpha  occ. eigenvalues --  -10.33315 -10.33315 -10.33067 -10.33064 -10.32047
 Alpha  occ. eigenvalues --  -10.32047 -10.31566 -10.31566 -10.26978 -10.26978
 Alpha  occ. eigenvalues --  -10.23169  -3.76866  -2.10172  -2.09830  -2.09221
 Alpha  occ. eigenvalues --   -1.08774  -1.07804  -1.06622  -1.04691  -0.90583
 Alpha  occ. eigenvalues --   -0.86025  -0.83843  -0.82866  -0.82780  -0.80275
 Alpha  occ. eigenvalues --   -0.73873  -0.73472  -0.72707  -0.70683  -0.66449
 Alpha  occ. eigenvalues --   -0.61852  -0.60520  -0.59378  -0.58865  -0.58118
 Alpha  occ. eigenvalues --   -0.57597  -0.56856  -0.56341  -0.52600  -0.52018
 Alpha  occ. eigenvalues --   -0.51082  -0.50238  -0.49739  -0.48877  -0.48112
 Alpha  occ. eigenvalues --   -0.47772  -0.47426  -0.47231  -0.46937  -0.46426
 Alpha  occ. eigenvalues --   -0.44937  -0.44548  -0.43978  -0.43916  -0.43751
 Alpha  occ. eigenvalues --   -0.42789  -0.42453  -0.38316  -0.33785  -0.32373
 Alpha  occ. eigenvalues --   -0.31477  -0.30735  -0.30557  -0.28312  -0.25653
 Alpha virt. eigenvalues --    0.03261   0.05673   0.06491   0.09009   0.10005
 Alpha virt. eigenvalues --    0.11613   0.12435   0.13748   0.14775   0.15099
 Alpha virt. eigenvalues --    0.15470   0.15776   0.16407   0.16582   0.16669

 Mulliken charges:
               1
     1  C    0.103744
     2  C    0.103758
     3  C   -0.288339
     4  C   -0.288357
     5  C    0.292074
     6  H    0.099609
     7  H    0.099610
     8  O   -0.572220
     9  N   -0.299767
    10  C   -0.091378
    11  H    0.122312
    12  H    0.114399
    13  C   -0.091327
    14  H    0.122306
    15  H    0.114397
    16  N   -0.040538
    17  N   -0.040569
    18  C   -0.645148
    19  H    0.076295
    20  H    0.072873
    21  H    0.072838
    22  C   -0.187007
    23  H    0.109250
    24  H    0.114352
    25  H    0.108889
    26  C   -0.215670
    27  H    0.108910
    28  H    0.123194
    29  H    0.118432
    30  C   -0.187000
    31  H    0.114353
    32  H    0.109251
    33  H    0.108880
    34  C   -0.215666
    35  H    0.123193
    36  H    0.108907
    37  H    0.118430
    38  H   -0.048855
    39  Ir   0.451584
 Sum of Mulliken charges =  -0.00000

 Dipole moment (field-independent basis, Debye):
    X=             10.4395    Y=             -0.0001    Z=              0.2119  Tot=             10.4417
 Quadrupole moment (field-independent basis, Debye-Ang):
   XX=           -195.9759   YY=            -88.2780   ZZ=           -118.4076
   XY=              0.0004   XZ=              4.8571   YZ=              0.0001

  Exact polarizability:     350.535      -0.001     280.826      -5.419       0.001     198.027
 Approx polarizability:     274.337       0.000     232.100      -9.131       0.001     193.869

                      1                      2                      3
                      A                      A                      A
 Frequencies --     58.4820                67.9106                87.5657
 Red. masses --      2.4576                 3.6011                 4.7899
 Frc consts  --      0.0050                 0.0098                 0.0216
 IR Inten    --      0.6126                 1.5528                15.3771

                      4                      5                      6
                      A                      A                      A
 Frequencies --     87.9158               146.9179               179.9486
 Red. masses --      1.1509                 3.1183                 2.5650
 Frc consts  --      0.0052                 0.0397                 0.0489
 IR Inten    --      0.5821                 0.1590                 0.1602

                      7                      8                      9
                      A                      A                      A
 Frequencies --    183.6521               196.3990               199.2873
 Red. masses --      4.4068                 3.3289                 2.5976
 Frc consts  --      0.0876                 0.0757                 0.0608
 IR Inten    --      0.9238                 1.3646                 3.2573

                     10                     11                     12
                      A                      A                      A
 Frequencies --    217.7391               232.8271               238.3618
 Red. masses --      3.5219                 3.3987                 3.0902
 Frc consts  --      0.0984                 0.1085                 0.1034
 IR Inten    --      1.6413                 2.0009                 4.5671

                     13                     14                     15
                      A                      A                      A
 Frequencies --    249.2968               263.1116               280.4176
 Red. masses --      2.0125                 2.0812                 1.8205
 Frc consts  --      0.0737                 0.0849                 0.0843
 IR Inten    --      0.8012                 0.0025                 0.5328

                     16                     17                     18
                      A                      A                      A
 Frequencies --    285.9802               288.6679               291.2301
 Red. masses --      1.6050                 4.3398                 2.2760
 Frc consts  --      0.0773                 0.2131                 0.1137
 IR Inten    --      1.2359                 2.0767                 4.9077

                     19                     20                     21
                      A                      A                      A
 Frequencies --    307.1571               308.7916               356.2727
 Red. masses --      1.1093                 1.1816                 4.2718
 Frc consts  --      0.0617                 0.0664                 0.3195
 IR Inten    --      2.8338                 4.0900                28.3686

                     22                     23                     24
                      A                      A                      A
 Frequencies --    406.5561               413.2367               443.5785
 Red. masses --      2.3538                 2.3394                 1.0250
 Frc consts  --      0.2292                 0.2354                 0.1188
 IR Inten    --      1.5284                 1.3228                14.3269

                     25                     26                     27
                      A                      A                      A
 Frequencies --    460.2448               490.4456               494.3962
 Red. masses --      2.7796                 2.6780                 3.0469
 Frc consts  --      0.3469                 0.3795                 0.4388
 IR Inten    --      5.4239                20.4377                33.2330

                     28                     29                     30
                      A                      A                      A
 Frequencies --    517.0720               532.8068               534.2406
 Red. masses --      2.7642                 3.9641                 3.3483
 Frc consts  --      0.4354                 0.6630                 0.5631
 IR Inten    --      5.4781                43.4134                 1.1032

                     31                     32                     33
                      A                      A                      A
 Frequencies --    562.5506               587.9211               595.9630
 Red. masses --      2.9778                 1.1101                 7.0261
 Frc consts  --      0.5552                 0.2261                 1.4703
 IR Inten    --      6.7078                13.9124                13.7751

                     34                     35                     36
                      A                      A                      A
 Frequencies --    636.8482               696.2243               729.8225
 Red. masses --      3.2899                 5.6074                 2.9432
 Frc consts  --      0.7862                 1.6014                 0.9236
 IR Inten    --      1.6296                 0.4113                 1.7119

                     37                     38                     39
                      A                      A                      A
 Frequencies --    758.5658               777.1717               806.4675
 Red. masses --      1.9602                 1.6866                 1.2356
 Frc consts  --      0.6646                 0.6002                 0.4735
 IR Inten    --     12.3917                 1.2565                 1.0590

                     40                     41                     42
                      A                      A                      A
 Frequencies --    852.3894               868.3251               888.5835
 Red. masses --      1.4967                 2.5952                 2.6190
 Frc consts  --      0.6407                 1.1529                 1.2184
 IR Inten    --     16.8375                61.9432                70.1183

                     43                     44                     45
                      A                      A                      A
 Frequencies --    890.7430               932.5291               989.0276
 Red. masses --      3.1546                 2.9180                 2.1871
 Frc consts  --      1.4747                 1.4951                 1.2605
 IR Inten    --     26.6313                56.9183                 0.0940

                     46                     47                     48
                      A                      A                      A
 Frequencies --    990.5110               995.4957              1014.5098
 Red. masses --      2.2529                 2.9363                 2.4539
 Frc consts  --      1.3023                 1.7145                 1.4881
 IR Inten    --    103.7203                27.3873                28.8385

                     49                     50                     51
                      A                      A                      A
 Frequencies --   1050.9138              1054.7363              1055.0875
 Red. masses --      2.4851                 1.6398                 1.9782
 Frc consts  --      1.6171                 1.0748                 1.2975
 IR Inten    --     18.5959                20.9413                 2.3036

                     52                     53                     54
                      A                      A                      A
 Frequencies --   1092.3387              1130.7924              1133.3708
 Red. masses --      4.4863                 1.2637                 1.2646
 Frc consts  --      3.1540                 0.9520                 0.9571
 IR Inten    --    112.8383                 0.3171                 1.6106

                     55                     56                     57
                      A                      A                      A
 Frequencies --   1180.3424              1183.4730              1210.9414
 Red. masses --      1.4523                 1.4566                 1.8981
 Frc consts  --      1.1922                 1.2020                 1.6399
 IR Inten    --      0.2211                15.0976                 8.5170

                     58                     59                     60
                      A                      A                      A
 Frequencies --   1211.8268              1225.9130              1228.4825
 Red. masses --      1.5913                 1.9178                 1.7095
 Frc consts  --      1.3768                 1.6981                 1.5201
 IR Inten    --      0.0316                 7.7073                11.1840

                     61                     62                     63
                      A                      A                      A
 Frequencies --   1258.3890              1265.5084              1277.6926
 Red. masses --      5.9191                 1.1995                 1.9914
 Frc consts  --      5.5225                 1.1318                 1.9154
 IR Inten    --      0.5344                 5.4358                 2.8636

                     64                     65                     66
                      A                      A                      A
 Frequencies --   1282.2972              1319.7850              1321.6909
 Red. masses --      2.0076                 1.3887                 1.4917
 Frc consts  --      1.9450                 1.4252                 1.5353
 IR Inten    --      0.5314                 2.1195                11.3960

                     67                     68                     69
                      A                      A                      A
 Frequencies --   1388.4023              1397.1637              1431.1414
 Red. masses --      1.4071                 1.4323                 3.9727
 Frc consts  --      1.5981                 1.6474                 4.7940
 IR Inten    --      2.5831                 8.4881               133.9869

                     70                     71                     72
                      A                      A                      A
 Frequencies --   1449.8789              1450.8762              1457.9805
 Red. masses --      1.1349                 1.1543                 1.0780
 Frc consts  --      1.4056                 1.4316                 1.3501
 IR Inten    --      0.3191                 3.8569                 0.7640

                     73                     74                     75
                      A                      A                      A
 Frequencies --   1472.1071              1472.1625              1476.2062
 Red. masses --      1.1437                 1.1259                 1.0691
 Frc consts  --      1.4603                 1.4376                 1.3726
 IR Inten    --      7.4855                 8.0813                 3.0552

                     76                     77                     78
                      A                      A                      A
 Frequencies --   1486.7174              1487.4293              1487.6954
 Red. masses --      1.0410                 1.0406                 1.1121
 Frc consts  --      1.3556                 1.3565                 1.4502
 IR Inten    --      0.0586                 0.5668                 3.6339

                     79                     80                     81
                      A                      A                      A
 Frequencies --   1492.3163              1499.8957              1501.2740
 Red. masses --      1.1266                 1.0647                 1.0574
 Frc consts  --      1.4782                 1.4113                 1.4041
 IR Inten    --      1.2856                 8.7333                28.6230

                     82                     83                     84
                      A                      A                      A
 Frequencies --   1506.5770              1508.3933              1508.6052
 Red. masses --      1.0467                 1.0456                 1.0462
 Frc consts  --      1.3998                 1.4017                 1.4028
 IR Inten    --     20.1128                 7.4550                33.3282

                     85                     86                     87
                      A                      A                      A
 Frequencies --   1509.5315              1549.5459              1576.3218
 Red. masses --      1.0482                 7.9870                 6.9015
 Frc consts  --      1.4073                11.2991                10.1038
 IR Inten    --     45.3721               153.5827                57.9903

                     88                     89                     90
                      A                      A                      A
 Frequencies --   1604.3939              1671.1502              2382.5404
 Red. masses --      9.3552                 7.5816                 1.0132
 Frc consts  --     14.1881                12.4751                 3.3888
 IR Inten    --   1020.5189               914.5741                79.5614

                     91                     92                     93
                      A                      A                      A
 Frequencies --   2950.1549              3011.8051              3033.8792
 Red. masses --      1.0455                 1.0855                 1.0990
 Frc consts  --      5.3611                 5.8013                 5.9602
 IR Inten    --    148.6193               139.0160               105.9560

                     94                     95                     96
                      A                      A                      A
 Frequencies --   3040.6397              3040.8708              3044.3119
 Red. masses --      1.0449                 1.0435                 1.0384
 Frc consts  --      5.6920                 5.6852                 5.6700
 IR Inten    --    100.9906                32.3874                88.3558

                     97                     98                     99
                      A                      A                      A
 Frequencies --   3045.3247              3073.9109              3074.4995
 Red. masses --      1.0392                 1.0596                 1.0595
 Frc consts  --      5.6783                 5.8992                 5.9008
 IR Inten    --     21.1613                63.9116                10.7670

                    100                    101                    102
                      A                      A                      A
 Frequencies --   3126.3840              3126.5577              3126.7783
 Red. masses --      1.1029                 1.1035                 1.1046
 Frc consts  --      6.3514                 6.3554                 6.3625
 IR Inten    --     16.4932                 8.7837                56.7560

                    103                    104                    105
                      A                      A                      A
 Frequencies --   3127.1165              3144.1564              3144.2451
 Red. masses --      1.1039                 1.0905                 1.0905
 Frc consts  --      6.3600                 6.3516                 6.3520
 IR Inten    --      2.2114                10.3994                17.4097

                    106                    107                    108
                      A                      A                      A
 Frequencies --   3164.8240              3164.8367              3183.7129
 Red. masses --      1.1045                 1.1046                 1.1060
 Frc consts  --      6.5183                 6.5184                 6.6047
 IR Inten    --     14.1262                 3.9294                 1.8188

                    109                    110                    111
                      A                      A                      A
 Frequencies --   3183.7670              3208.7623              3209.7721
 Red. masses --      1.1060                 1.0921                 1.0921
 Frc consts  --      6.6050                 6.6248                 6.6294
 IR Inten    --     24.2457                16.2572                15.5133

 - Thermochemistry -
 -------------------
 Temperature   298.150 Kelvin.  Pressure   1.00000 Atm.
 Atom     1 has atomic number  6 and mass  12.00000

 Molecular mass:   417.13959 amu.
 Principal axes and moments of inertia in atomic units:
                           1         2         3
     Eigenvalues --  3417.001725237.607327807.75379
           X            0.99998   0.00000   0.00550
           Y           -0.00000   1.00000  -0.00000
           Z           -0.00550   0.00000   0.99998
 This molecule is an asymmetric top.
 Rotational symmetry number  1.
 Warning -- assumption of classical behavior for rotation
           may cause significant error
 Rotational temperatures (Kelvin)      0.02535     0.01654     0.01109
 Rotational constants (GHZ):           0.52817     0.34457     0.23115
 Zero-point vibrational energy     878491.8 (Joules/Mol)
                                  209.96457 (Kcal/Mol)
 Warning -- explicit consideration of  33 degrees of freedom as
           vibrations may cause significant error
 Vibrational temperatures:     84.14    97.71   125.99   126.49   211.38
          (Kelvin)            258.91   264.23   282.57   286.73   313.28
                              334.99   342.95   358.68   378.56   403.46
                              411.46   415.33   419.02   441.93   444.28
                              512.60   584.94   594.56   638.21   662.19
                              705.64   711.33   743.95   766.59   768.65
                              809.38   845.89   857.46   916.28  1001.71
                             1050.05  1091.41  1118.18  1160.33  1226.40
                             1249.33  1278.47  1281.58  1341.70  1422.99
                             1425.12  1432.30  1459.65  1512.03  1517.53
                             1518.04  1571.63  1626.96  1630.67  1698.25
                             1702.75  1742.27  1743.55  1763.82  1767.51
                             1810.54  1820.78  1838.31  1844.94  1898.88
                             1901.62  1997.60  2010.21  2059.09  2086.05
                             2087.49  2097.71  2118.03  2118.11  2123.93
                             2139.05  2140.08  2140.46  2147.11  2158.02
                             2160.00  2167.63  2170.24  2170.55  2171.88
                             2229.45  2267.98  2308.37  2404.41  3427.94
                             4244.61  4333.32  4365.08  4374.80  4375.13
                             4380.09  4381.54  4422.67  4423.52  4498.17
                             4498.42  4498.74  4499.22  4523.74  4523.87
                             4553.48  4553.49  4580.65  4580.73  4616.69
                             4618.15

 Zero-point correction=                           0.334600 (Hartree/Particle)
 Thermal correction to Energy=                    0.353146
 Thermal correction to Enthalpy=                  0.354091
 Thermal correction to Gibbs Free Energy=         0.289557
 Sum of electronic and zero-point Energies=           -814.171874
 Sum of electronic and thermal Energies=              -814.153327
 Sum of electronic and thermal Enthalpies=            -814.152383
 Sum of electronic and thermal Free Energies=         -814.216916

                     E (Thermal)             CV                S
                      KCal/Mol        Cal/Mol-Kelvin    Cal/Mol-Kelvin
 Total                  221.603             73.047            135.821
 Electronic               0.000              0.000              0.000
 Translational            0.889              2.981             43.975
 Rotational               0.889              2.981             33.302
 Vibrational            219.825             67.085             58.544
 Vibration     1          0.596              1.974              4.508
 Vibration     2          0.598              1.970              4.213
 Vibration     3          0.601              1.958              3.714
 Vibration     4          0.601              1.958              3.706
 Vibration     5          0.617              1.906              2.712
 Vibration     6          0.629              1.867              2.329
 Vibration     7          0.631              1.862              2.291
 Vibration     8          0.636              1.845              2.167
 Vibration     9          0.637              1.841              2.140
 Vibration    10          0.646              1.814              1.978
 Vibration    11          0.654              1.791              1.857
 Vibration    12          0.656              1.782              1.815
 Vibration    13          0.662              1.764              1.736
 Vibration    14          0.670              1.740              1.641
 Vibration    15          0.680              1.710              1.531
 Vibration    16          0.684              1.700              1.498
 Vibration    17          0.685              1.695              1.482
 Vibration    18          0.687              1.690              1.467
 Vibration    19          0.697              1.660              1.378
 Vibration    20          0.698              1.657              1.369
 Vibration    21          0.732              1.562              1.138
 Vibration    22          0.771              1.456              0.939
 Vibration    23          0.777              1.441              0.915
 Vibration    24          0.803              1.375              0.815
 Vibration    25          0.818              1.338              0.765
 Vibration    26          0.846              1.271              0.682
 Vibration    27          0.850              1.262              0.672
 Vibration    28          0.872              1.212              0.617
 Vibration    29          0.888              1.177              0.581
 Vibration    30          0.889              1.174              0.578
 Vibration    31          0.918              1.112              0.519
 Vibration    32          0.945              1.058              0.471
 Vibration    33          0.954              1.040              0.457

                           ! Non-Optimized Parameters !
 Normal termination of Gaussian 16 at Fri Mar  8 22:16:57 2024.
