 Gaussian 16, Revision C.01,
 Gaussian 16:  ES64L-G16RevC.01  3-Jul-2019

 ----------------------------------------------------------
 # wb97xd def2TZVPP SCRF=(solvent=dichloromethane) opt freq
 ----------------------------------------------------------

 ------
 ZHRhMe
 ------
 Symbolic Z-matrix:
 Charge =  0 Multiplicity = 1

 SCF Done:  E(RwB97XD) =  -820.633777645     A.U. after   18 cycles
 SCF Done:  E(RwB97XD) =  -820.639573603     A.U. after   14 cycles
 SCF Done:  E(RwB97XD) =  -820.635827759     A.U. after   15 cycles
 SCF Done:  E(RwB97XD) =  -820.640209570     A.U. after   14 cycles
 SCF Done:  E(RwB97XD) =  -820.639944602     A.U. after   15 cycles
 SCF Done:  E(RwB97XD) =  -820.640726006     A.U. after   14 cycles
 SCF Done:  E(RwB97XD) =  -820.640792820     A.U. after   13 cycles
 SCF Done:  E(RwB97XD) =  -820.640862482     A.U. after   12 cycles
 SCF Done:  E(RwB97XD) =  -820.640857807     A.U. after   13 cycles
 SCF Done:  E(RwB97XD) =  -820.640863625     A.U. after   12 cycles
 SCF Done:  E(RwB97XD) =  -820.640869459     A.U. after   11 cycles
 Optimization completed.
    -- Stationary point found.
 Normal termination of Gaussian 16 at Thu Mar  7 21:45:14 2024.

 ----------------------------------------------------------------------
 #N Geom=AllCheck Guess=TCheck SCRF=Check GenChk RwB97XD/def2TZVPP Freq
 ----------------------------------------------------------------------

 Structure from the checkpoint file:  "ZHRhMe.chk"
 ------
 ZHRhMe
 ------
 Charge =  0 Multiplicity = 1

                         Standard orientation:
 ---------------------------------------------------------------------
 Center     Atomic      Atomic             Coordinates (Angstroms)
 Number     Number       Type             X           Y           Z
 ---------------------------------------------------------------------
      1          6           0        1.463668    1.196509   -0.603091
      2          6           0        1.463668   -1.196508   -0.603091
      3          6           0        2.652572    1.228010    0.032577
      4          6           0        2.652573   -1.228009    0.032576
      5          6           0        3.384727    0.000001    0.316435
      6          1           0        3.058225    2.165216    0.386227
      7          1           0        3.058225   -2.165215    0.386226
      8          8           0        4.505483    0.000001    0.830442
      9          7           0        0.955510    0.000000   -1.027128
     10          6           0        0.522087    2.348349   -0.820582
     11          1           0        0.254529    2.398636   -1.876496
     12          1           0        0.998493    3.292241   -0.547410
     13          6           0        0.522088   -2.348348   -0.820583
     14          1           0        0.254529   -2.398635   -1.876497
     15          1           0        0.998494   -3.292240   -0.547411
     16          7           0       -0.733576    2.143987   -0.041170
     17          7           0       -0.733575   -2.143987   -0.041170
     18          6           0       -2.867952   -0.000001    0.904535
     19          1           0       -2.701660   -0.000011    1.992899
     20          1           0       -3.483578    0.880432    0.681769
     21          1           0       -3.483583   -0.880427    0.681755
     22          6           0       -1.804776    2.952101   -0.640024
     23          1           0       -2.709603    2.831042   -0.050951
     24          1           0       -1.530950    4.013195   -0.659480
     25          1           0       -1.997930    2.606162   -1.652608
     26          6           0       -0.524118    2.578672    1.350030
     27          1           0       -0.305084    3.652210    1.390946
     28          1           0       -1.423954    2.370769    1.923313
     29          1           0        0.304711    2.026474    1.787165
     30          6           0       -1.804775   -2.952101   -0.640023
     31          1           0       -1.530948   -4.013196   -0.659480
     32          1           0       -2.709602   -2.831043   -0.050950
     33          1           0       -1.997929   -2.606163   -1.652607
     34          6           0       -0.524115   -2.578672    1.350030
     35          1           0       -1.423951   -2.370770    1.923314
     36          1           0       -0.305081   -3.652210    1.390945
     37          1           0        0.304713   -2.026474    1.787165
     38          1           0        0.067439    0.000000   -1.594370
     39         45           0       -1.043817   -0.000000   -0.026521
 ---------------------------------------------------------------------

 SCF Done:  E(RwB97XD) =  -820.640869459     A.U. after    1 cycles

 The electronic state is 1-A.
 Alpha  occ. eigenvalues --  -19.20883 -14.50451 -14.48948 -14.48947 -10.36493
 Alpha  occ. eigenvalues --  -10.36025 -10.36023 -10.33964 -10.33964 -10.30983
 Alpha  occ. eigenvalues --  -10.30983 -10.30919 -10.30919 -10.29167 -10.29167
 Alpha  occ. eigenvalues --  -10.22701  -3.25759  -2.01878  -2.01815  -1.99017
 Alpha  occ. eigenvalues --   -1.12206  -1.10905  -1.05939  -1.05344  -0.92562
 Alpha  occ. eigenvalues --   -0.89912  -0.84544  -0.82086  -0.81901  -0.81322
 Alpha  occ. eigenvalues --   -0.74182  -0.73324  -0.73000  -0.70760  -0.70526
 Alpha  occ. eigenvalues --   -0.65562  -0.61995  -0.60128  -0.59198  -0.58435
 Alpha  occ. eigenvalues --   -0.57699  -0.57541  -0.56900  -0.54028  -0.53249
 Alpha  occ. eigenvalues --   -0.52385  -0.51291  -0.50647  -0.49968  -0.49223
 Alpha  occ. eigenvalues --   -0.48449  -0.47506  -0.47267  -0.46545  -0.46362
 Alpha  occ. eigenvalues --   -0.46011  -0.45806  -0.45785  -0.43732  -0.43512
 Alpha  occ. eigenvalues --   -0.40484  -0.36447  -0.36217  -0.34350  -0.33047
 Alpha  occ. eigenvalues --   -0.30559  -0.26784  -0.25633  -0.25451  -0.23513
 Alpha virt. eigenvalues --    0.02207   0.04375   0.06757   0.08692   0.08931
 Alpha virt. eigenvalues --    0.10145   0.10502   0.13237   0.13994   0.14321
 Alpha virt. eigenvalues --    0.15620   0.15775   0.16315   0.16352   0.16803

 Mulliken charges:
               1
     1  C    0.097468
     2  C    0.097468
     3  C   -0.197947
     4  C   -0.197947
     5  C    0.303114
     6  H    0.110172
     7  H    0.110172
     8  O   -0.493699
     9  N   -0.113345
    10  C   -0.092108
    11  H    0.135290
    12  H    0.102550
    13  C   -0.092108
    14  H    0.135290
    15  H    0.102550
    16  N   -0.058094
    17  N   -0.058094
    18  C   -0.693822
    19  H    0.087684
    20  H    0.073947
    21  H    0.073948
    22  C   -0.163435
    23  H    0.107023
    24  H    0.105771
    25  H    0.105355
    26  C   -0.168726
    27  H    0.098497
    28  H    0.114117
    29  H    0.118168
    30  C   -0.163436
    31  H    0.105771
    32  H    0.107023
    33  H    0.105355
    34  C   -0.168726
    35  H    0.114117
    36  H    0.098497
    37  H    0.118168
    38  H    0.161417
    39  Rh  -0.227444
 Sum of Mulliken charges =  -0.00000

 Dipole moment (field-independent basis, Debye):
    X=             -4.0619    Y=             -0.0000    Z=             -3.5969  Tot=              5.4256
 Quadrupole moment (field-independent basis, Debye-Ang):
   XX=           -168.8166   YY=            -88.6201   ZZ=           -117.5143
   XY=             -0.0000   XZ=             -5.8292   YZ=              0.0000

  Exact polarizability:     340.357       0.000     273.395      19.493      -0.000     232.838
 Approx polarizability:     267.287       0.000     220.788      20.891       0.000     216.292

 ******    1 imaginary frequencies (negative Signs) ******

                      1                      2                      3
                      A                      A                      A
 Frequencies --    -55.7290                50.0022                68.9021
 Red. masses --      1.0856                 5.3356                 2.8712
 Frc consts  --      0.0020                 0.0079                 0.0080
 IR Inten    --      0.0267                12.3857                 2.0061

                      4                      5                      6
                      A                      A                      A
 Frequencies --     74.8638               121.1247               153.9681
 Red. masses --      3.4989                 3.3144                 4.7302
 Frc consts  --      0.0116                 0.0286                 0.0661
 IR Inten    --      4.3610                 1.9090                 7.2540

                      7                      8                      9
                      A                      A                      A
 Frequencies --    172.8346               179.3784               180.9668
 Red. masses --      4.3528                 2.6662                 5.0162
 Frc consts  --      0.0766                 0.0505                 0.0968
 IR Inten    --      3.2493                 0.2981                 1.7711

                     10                     11                     12
                      A                      A                      A
 Frequencies --    199.9899               215.4689               240.8515
 Red. masses --      3.0581                 3.1306                 3.4797
 Frc consts  --      0.0721                 0.0856                 0.1189
 IR Inten    --      0.1212                 1.5094                 0.3868

                     13                     14                     15
                      A                      A                      A
 Frequencies --    248.9893               267.5834               278.7806
 Red. masses --      3.4849                 3.2292                 1.2334
 Frc consts  --      0.1273                 0.1362                 0.0565
 IR Inten    --      2.2923                 0.0147                 0.0049

                     16                     17                     18
                      A                      A                      A
 Frequencies --    283.7717               289.8927               294.7034
 Red. masses --      1.1644                 3.0175                 3.6767
 Frc consts  --      0.0552                 0.1494                 0.1881
 IR Inten    --      0.9302                 0.9712                 2.4704

                     19                     20                     21
                      A                      A                      A
 Frequencies --    304.0097               307.5213               344.3953
 Red. masses --      1.1289                 1.1748                 4.0168
 Frc consts  --      0.0615                 0.0655                 0.2807
 IR Inten    --      2.9270                 5.7868                 6.9599

                     22                     23                     24
                      A                      A                      A
 Frequencies --    398.8129               402.4303               449.2995
 Red. masses --      2.3471                 2.4814                 2.5073
 Frc consts  --      0.2199                 0.2368                 0.2982
 IR Inten    --      0.3203                 9.3461                 1.7162

                     25                     26                     27
                      A                      A                      A
 Frequencies --    461.0468               477.5239               492.3297
 Red. masses --      2.7029                 2.4436                 2.6314
 Frc consts  --      0.3385                 0.3283                 0.3758
 IR Inten    --     16.7685                21.2459                 6.6484

                     28                     29                     30
                      A                      A                      A
 Frequencies --    524.8214               529.4786               537.5788
 Red. masses --      3.7245                 3.7628                 6.1787
 Frc consts  --      0.6044                 0.6215                 1.0520
 IR Inten    --     40.2393                 0.2946                66.4319

                     31                     32                     33
                      A                      A                      A
 Frequencies --    564.0355               630.1089               668.9315
 Red. masses --      3.5688                 4.4487                 1.2310
 Frc consts  --      0.6689                 1.0407                 0.3245
 IR Inten    --      7.4200                 8.0200                48.1542

                     34                     35                     36
                      A                      A                      A
 Frequencies --    686.4856               716.9447               751.6996
 Red. masses --      5.4936                 2.6700                 3.3766
 Frc consts  --      1.5254                 0.8086                 1.1241
 IR Inten    --      0.6550                46.5827                18.4030

                     37                     38                     39
                      A                      A                      A
 Frequencies --    754.4254               842.0232               855.4293
 Red. masses --      1.2484                 1.2118                 1.9126
 Frc consts  --      0.4186                 0.5062                 0.8246
 IR Inten    --      1.7459               563.5204                68.4427

                     40                     41                     42
                      A                      A                      A
 Frequencies --    872.5611               899.7561               903.1956
 Red. masses --      2.5856                 1.9152                 2.4354
 Frc consts  --      1.1598                 0.9135                 1.1705
 IR Inten    --    148.5693                28.7464                53.5701

                     43                     44                     45
                      A                      A                      A
 Frequencies --    921.8774               969.2180               985.9773
 Red. masses --      2.5145                 2.6589                 2.3235
 Frc consts  --      1.2591                 1.4716                 1.3308
 IR Inten    --     10.8845               217.9504                 6.5810

                     46                     47                     48
                      A                      A                      A
 Frequencies --   1005.0491              1020.0349              1040.7300
 Red. masses --      2.5172                 2.4700                 2.7325
 Frc consts  --      1.4981                 1.5142                 1.7438
 IR Inten    --      1.4995                54.3050                29.4129

                     49                     50                     51
                      A                      A                      A
 Frequencies --   1049.7631              1055.9631              1060.7554
 Red. masses --      2.2342                 1.6401                 1.7976
 Frc consts  --      1.4506                 1.0775                 1.1917
 IR Inten    --     75.7342                 0.1868                12.7354

                     52                     53                     54
                      A                      A                      A
 Frequencies --   1129.1702              1131.9570              1175.9897
 Red. masses --      1.2615                 1.2644                 1.4468
 Frc consts  --      0.9476                 0.9545                 1.1789
 IR Inten    --      0.7103                 3.4274                 0.9143

                     55                     56                     57
                      A                      A                      A
 Frequencies --   1180.2261              1191.2683              1209.6946
 Red. masses --      1.3819                 1.7270                 1.3332
 Frc consts  --      1.1341                 1.4440                 1.1495
 IR Inten    --     24.6363                 0.0458                 3.4177

                     58                     59                     60
                      A                      A                      A
 Frequencies --   1214.0256              1215.3465              1224.5672
 Red. masses --      1.8438                 1.7108                 1.9516
 Frc consts  --      1.6011                 1.4888                 1.7243
 IR Inten    --      7.1148                 3.0040                 5.3467

                     61                     62                     63
                      A                      A                      A
 Frequencies --   1264.0890              1282.1363              1286.0302
 Red. masses --      2.0977                 2.0822                 2.1236
 Frc consts  --      1.9750                 2.0167                 2.0693
 IR Inten    --     14.3108                 2.3121                 2.8512

                     64                     65                     66
                      A                      A                      A
 Frequencies --   1309.1731              1311.2921              1379.4461
 Red. masses --      1.6674                 1.5264                 1.5430
 Frc consts  --      1.6838                 1.5464                 1.7299
 IR Inten    --     13.3378                 3.9911                10.0249

                     67                     68                     69
                      A                      A                      A
 Frequencies --   1394.1658              1394.9293              1424.4498
 Red. masses --      1.4094                 1.3972                 2.6896
 Frc consts  --      1.6140                 1.6018                 3.2154
 IR Inten    --      2.6380                 2.3591               100.1710

                     70                     71                     72
                      A                      A                      A
 Frequencies --   1444.2140              1446.5402              1450.8894
 Red. masses --      1.1094                 1.1529                 1.1088
 Frc consts  --      1.3633                 1.4214                 1.3753
 IR Inten    --      0.5235                 5.6701                 0.2685

                     73                     74                     75
                      A                      A                      A
 Frequencies --   1461.1819              1474.8091              1476.4049
 Red. masses --      1.0791                 1.1859                 1.1618
 Frc consts  --      1.3574                 1.5197                 1.4920
 IR Inten    --      6.1618                 1.3108                 3.6696

                     76                     77                     78
                      A                      A                      A
 Frequencies --   1482.1200              1483.1189              1488.6350
 Red. masses --      1.0530                 1.0593                 1.0788
 Frc consts  --      1.3628                 1.3729                 1.4085
 IR Inten    --      0.0022                 2.4883                 6.4361

                     79                     80                     81
                      A                      A                      A
 Frequencies --   1489.5232              1498.1004              1498.2402
 Red. masses --      1.0777                 1.0795                 1.0712
 Frc consts  --      1.4087                 1.4274                 1.4167
 IR Inten    --      3.2744                15.0912                27.7548

                     82                     83                     84
                      A                      A                      A
 Frequencies --   1500.4853              1502.8722              1506.6795
 Red. masses --      1.0537                 1.0506                 1.0453
 Frc consts  --      1.3978                 1.3981                 1.3981
 IR Inten    --      0.0121                44.6705                40.6850

                     85                     86                     87
                      A                      A                      A
 Frequencies --   1507.3129              1551.9577              1662.4451
 Red. masses --      1.0440                 4.6326                 4.6360
 Frc consts  --      1.3975                 6.5741                 7.5489
 IR Inten    --     16.8828               148.4316                 8.8646

                     88                     89                     90
                      A                      A                      A
 Frequencies --   1674.3758              1707.2936              2888.5763
 Red. masses --     10.3336                 7.7380                 1.0833
 Frc consts  --     17.0690                13.2890                 5.3256
 IR Inten    --   1024.5606               771.1364               663.1371

                     91                     92                     93
                      A                      A                      A
 Frequencies --   2958.9968              3013.3129              3013.7845
 Red. masses --      1.0367                 1.0498                 1.0497
 Frc consts  --      5.3482                 5.6161                 5.6174
 IR Inten    --    158.0274               125.8177                57.9325

                     94                     95                     96
                      A                      A                      A
 Frequencies --   3018.7578              3018.8917              3021.1280
 Red. masses --      1.0493                 1.0636                 1.0776
 Frc consts  --      5.6339                 5.7109                 5.7949
 IR Inten    --    208.5444                 9.4872                82.8960

                     97                     98                     99
                      A                      A                      A
 Frequencies --   3040.2857              3065.1015              3065.5709
 Red. masses --      1.1007                 1.0603                 1.0603
 Frc consts  --      5.9945                 5.8692                 5.8707
 IR Inten    --    133.4574                58.9152                22.7175

                    100                    101                    102
                      A                      A                      A
 Frequencies --   3121.5733              3121.6400              3129.4096
 Red. masses --      1.1059                 1.1059                 1.0848
 Frc consts  --      6.3492                 6.3493                 6.2593
 IR Inten    --     14.5797                 9.0889                 7.1040

                    103                    104                    105
                      A                      A                      A
 Frequencies --   3129.4446              3130.7323              3130.9239
 Red. masses --      1.0847                 1.0854                 1.0853
 Frc consts  --      6.2589                 6.2683                 6.2683
 IR Inten    --     21.0493                21.1086                20.3743

                    106                    107                    108
                      A                      A                      A
 Frequencies --   3172.1220              3172.1223              3174.8359
 Red. masses --      1.1056                 1.1056                 1.1051
 Frc consts  --      6.5544                 6.5544                 6.5627
 IR Inten    --      1.5661                12.1852                 2.6756

                    109                    110                    111
                      A                      A                      A
 Frequencies --   3174.8902              3226.5084              3227.2622
 Red. masses --      1.1051                 1.0928                 1.0933
 Frc consts  --      6.5630                 6.7031                 6.7091
 IR Inten    --     29.5363                 3.7813                 2.6898

 - Thermochemistry -
 -------------------
 Temperature   298.150 Kelvin.  Pressure   1.00000 Atm.
 Atom     1 has atomic number  6 and mass  12.00000

 Molecular mass:   327.08109 amu.
 Principal axes and moments of inertia in atomic units:
                           1         2         3
     Eigenvalues --  3602.055104472.162476966.95227
           X            0.99998  -0.00000  -0.00698
           Y            0.00000   1.00000  -0.00000
           Z            0.00698   0.00000   0.99998
 This molecule is an asymmetric top.
 Rotational symmetry number  1.
 Warning -- assumption of classical behavior for rotation
           may cause significant error
 Rotational temperatures (Kelvin)      0.02405     0.01937     0.01243
 Rotational constants (GHZ):           0.50103     0.40355     0.25904
    1 imaginary frequencies ignored.
 Zero-point vibrational energy     884323.3 (Joules/Mol)
                                  211.35834 (Kcal/Mol)
 Warning -- explicit consideration of  30 degrees of freedom as
           vibrations may cause significant error
 Vibrational temperatures:     71.94    99.13   107.71   174.27   221.53
          (Kelvin)            248.67   258.09   260.37   287.74   310.01
                              346.53   358.24   384.99   401.10   408.28
                              417.09   424.01   437.40   442.45   495.51
                              573.80   579.01   646.44   663.34   687.05
                              708.35   755.10   761.80   773.46   811.52
                              906.59   962.44   987.70  1031.52  1081.53
                             1085.45  1211.48  1230.77  1255.42  1294.55
                             1299.50  1326.38  1394.49  1418.60  1446.04
                             1467.60  1497.38  1510.37  1519.30  1526.19
                             1624.62  1628.63  1691.99  1698.08  1713.97
                             1740.48  1746.71  1748.61  1761.88  1818.74
                             1844.71  1850.31  1883.61  1886.66  1984.72
                             2005.89  2006.99  2049.47  2077.90  2081.25
                             2087.51  2102.31  2121.92  2124.22  2132.44
                             2133.88  2141.81  2143.09  2155.43  2155.63
                             2158.86  2162.30  2167.78  2168.69  2232.92
                             2391.89  2409.05  2456.41  4156.02  4257.34
                             4335.49  4336.16  4343.32  4343.51  4346.73
                             4374.29  4410.00  4410.67  4491.25  4491.34
                             4502.52  4502.57  4504.43  4504.70  4563.98
                             4563.98  4567.88  4567.96  4642.23  4643.31

 Zero-point correction=                           0.336821 (Hartree/Particle)
 Thermal correction to Energy=                    0.354718
 Thermal correction to Enthalpy=                  0.355662
 Thermal correction to Gibbs Free Energy=         0.292580
 Sum of electronic and zero-point Energies=           -820.304049
 Sum of electronic and thermal Energies=              -820.286151
 Sum of electronic and thermal Enthalpies=            -820.285207
 Sum of electronic and thermal Free Energies=         -820.348289

                     E (Thermal)             CV                S
                      KCal/Mol        Cal/Mol-Kelvin    Cal/Mol-Kelvin
 Total                  222.589             70.357            132.768
 Electronic               0.000              0.000              0.000
 Translational            0.889              2.981             43.250
 Rotational               0.889              2.981             33.084
 Vibrational            220.812             64.395             56.433
 Vibration     1          0.595              1.978              4.817
 Vibration     2          0.598              1.969              4.184
 Vibration     3          0.599              1.966              4.021
 Vibration     4          0.609              1.932              3.082
 Vibration     5          0.619              1.898              2.623
 Vibration     6          0.626              1.876              2.404
 Vibration     7          0.629              1.868              2.335
 Vibration     8          0.630              1.866              2.318
 Vibration     9          0.638              1.840              2.133
 Vibration    10          0.645              1.817              1.997
 Vibration    11          0.658              1.778              1.797
 Vibration    12          0.662              1.764              1.738
 Vibration    13          0.673              1.733              1.612
 Vibration    14          0.679              1.713              1.541
 Vibration    15          0.682              1.704              1.511
 Vibration    16          0.686              1.693              1.475
 Vibration    17          0.689              1.684              1.447
 Vibration    18          0.695              1.666              1.395
 Vibration    19          0.697              1.659              1.376
 Vibration    20          0.723              1.587              1.192
 Vibration    21          0.765              1.473              0.967
 Vibration    22          0.768              1.465              0.954
 Vibration    23          0.808              1.362              0.798
 Vibration    24          0.819              1.336              0.763
 Vibration    25          0.834              1.300              0.717
 Vibration    26          0.848              1.267              0.678
 Vibration    27          0.880              1.195              0.599
 Vibration    28          0.884              1.185              0.588
 Vibration    29          0.893              1.167              0.571
 Vibration    30          0.920              1.109              0.516

 Optimization completed.
    -- Stationary point found.
 Normal termination of Gaussian 16 at Fri Mar  8 11:56:32 2024.
