 Gaussian 16, Revision C.01,
 Gaussian 16:  ES64L-G16RevC.01  3-Jul-2019

 ----------------------------------------------------------
 # wb97xd def2TZVPP SCRF=(solvent=dichloromethane) opt freq
 ----------------------------------------------------------

 ---
 ZIr
 ---
 Symbolic Z-matrix:
 Charge =  0 Multiplicity = 1

 SCF Done:  E(RwB97XD) =  -773.945988407     A.U. after   21 cycles
 SCF Done:  E(RwB97XD) =  -773.951185074     A.U. after   14 cycles
 SCF Done:  E(RwB97XD) =  -773.951623526     A.U. after   14 cycles
 SCF Done:  E(RwB97XD) =  -773.951601581     A.U. after   15 cycles
 SCF Done:  E(RwB97XD) =  -773.951689279     A.U. after   14 cycles
 SCF Done:  E(RwB97XD) =  -773.951770633     A.U. after   14 cycles
 SCF Done:  E(RwB97XD) =  -773.951774219     A.U. after   12 cycles
 Optimization completed.
    -- Stationary point found.
 Normal termination of Gaussian 16 at Thu Mar  7 16:38:48 2024.

 ----------------------------------------------------------------------
 #N Geom=AllCheck Guess=TCheck SCRF=Check GenChk RwB97XD/def2TZVPP Freq
 ----------------------------------------------------------------------

 Structure from the checkpoint file:  "ZIr.chk"
 ---
 ZIr
 ---
 Charge =  0 Multiplicity = 1

                         Standard orientation:
 ---------------------------------------------------------------------
 Center     Atomic      Atomic             Coordinates (Angstroms)
 Number     Number       Type             X           Y           Z
 ---------------------------------------------------------------------
      1          6           0       -0.191452    1.531688    1.170781
      2          6           0       -0.191452    1.531688   -1.170781
      3          6           0       -0.060160    2.888364    1.214082
      4          6           0       -0.060160    2.888364   -1.214082
      5          6           0        0.041902    3.662830   -0.000000
      6          1           0       -0.046614    3.405566    2.164362
      7          1           0       -0.046614    3.405566   -2.164362
      8          8           0        0.185544    4.905422   -0.000000
      9          7           0       -0.215176    0.864789   -0.000000
     10          6           0       -0.457471    0.628414    2.344511
     11          1           0       -1.539835    0.556040    2.457163
     12          1           0       -0.050891    1.033055    3.273488
     13          6           0       -0.457471    0.628414   -2.344511
     14          1           0       -1.539835    0.556040   -2.457163
     15          1           0       -0.050891    1.033055   -3.273488
     16          7           0        0.054184   -0.757087    2.110121
     17          7           0        0.054184   -0.757087   -2.110121
     18          6           0       -0.728236   -1.705455    2.920681
     19          1           0       -0.326681   -2.706598    2.776613
     20          1           0       -0.673311   -1.449671    3.983953
     21          1           0       -1.764841   -1.688708    2.593798
     22          6           0        1.466727   -0.816289    2.543660
     23          1           0        1.538832   -0.628830    3.620164
     24          1           0        1.874312   -1.799338    2.321609
     25          1           0        2.044066   -0.066737    2.008396
     26          6           0       -0.728236   -1.705455   -2.920681
     27          1           0       -0.673311   -1.449671   -3.983953
     28          1           0       -0.326681   -2.706598   -2.776613
     29          1           0       -1.764841   -1.688708   -2.593798
     30          6           0        1.466727   -0.816289   -2.543660
     31          1           0        1.874312   -1.799338   -2.321609
     32          1           0        1.538832   -0.628830   -3.620164
     33          1           0        2.044066   -0.066737   -2.008396
     34         77           0       -0.044819   -1.042920    0.000000
 ---------------------------------------------------------------------

 SCF Done:  E(RwB97XD) =  -773.951774219     A.U. after    1 cycles

 The electronic state is 1-A'.
 Alpha  occ. eigenvalues --  -19.17436 -14.49943 -14.49943 -14.46766 -10.33448
 Alpha  occ. eigenvalues --  -10.33048 -10.33046 -10.33014 -10.33014 -10.31481
 Alpha  occ. eigenvalues --  -10.31480 -10.31317 -10.31317 -10.26787 -10.26787
 Alpha  occ. eigenvalues --   -3.72178  -2.06654  -2.06053  -2.03021  -1.08669
 Alpha  occ. eigenvalues --   -1.07565  -1.06145  -1.04671  -0.90578  -0.86260
 Alpha  occ. eigenvalues --   -0.83671  -0.82304  -0.82272  -0.80051  -0.73172
 Alpha  occ. eigenvalues --   -0.72462  -0.70717  -0.66338  -0.61681  -0.60319
 Alpha  occ. eigenvalues --   -0.59209  -0.58513  -0.57873  -0.57028  -0.56668
 Alpha  occ. eigenvalues --   -0.55909  -0.52869  -0.51523  -0.50668  -0.49736
 Alpha  occ. eigenvalues --   -0.49642  -0.48641  -0.47815  -0.47413  -0.47111
 Alpha  occ. eigenvalues --   -0.46678  -0.46444  -0.45925  -0.44332  -0.43735
 Alpha  occ. eigenvalues --   -0.43137  -0.42584  -0.37309  -0.33396  -0.30825
 Alpha  occ. eigenvalues --   -0.30487  -0.27494  -0.25487  -0.24097  -0.22958
 Alpha virt. eigenvalues --    0.04169   0.05576   0.05841   0.09252   0.10632
 Alpha virt. eigenvalues --    0.11378   0.11708   0.14117   0.15469   0.15593
 Alpha virt. eigenvalues --    0.15839   0.15894   0.16685   0.16768   0.16914

 Mulliken charges:
               1
     1  C    0.105318
     2  C    0.105318
     3  C   -0.308085
     4  C   -0.308085
     5  C    0.284052
     6  H    0.097794
     7  H    0.097794
     8  O   -0.580498
     9  N   -0.154230
    10  C   -0.082973
    11  H    0.117366
    12  H    0.112043
    13  C   -0.082973
    14  H    0.117366
    15  H    0.112043
    16  N   -0.045886
    17  N   -0.045886
    18  C   -0.175365
    19  H    0.106206
    20  H    0.109245
    21  H    0.105883
    22  C   -0.197771
    23  H    0.101119
    24  H    0.107926
    25  H    0.123395
    26  C   -0.175365
    27  H    0.109245
    28  H    0.106206
    29  H    0.105883
    30  C   -0.197771
    31  H    0.107926
    32  H    0.101119
    33  H    0.123395
    34  Ir  -0.101755
 Sum of Mulliken charges =  -0.00000

 Dipole moment (field-independent basis, Debye):
    X=              0.2013    Y=            -14.6805    Z=              0.0000  Tot=             14.6819
 Quadrupole moment (field-independent basis, Debye-Ang):
   XX=           -113.4624   YY=           -168.8721   ZZ=            -82.7134
   XY=             -4.5776   XZ=             -0.0000   YZ=             -0.0000

  Exact polarizability:     220.852       8.026     342.997      -0.000       0.000     278.521
 Approx polarizability:     192.132       6.818     262.598      -0.000       0.000     222.072

                      1                      2                      3
                     A"                     A'                     A'
 Frequencies --     60.1118                67.6618                84.0506
 Red. masses --      3.0110                 3.8643                 5.0566
 Frc consts  --      0.0064                 0.0104                 0.0210
 IR Inten    --      1.4841                 1.9794                10.8562

                      4                      5                      6
                     A'                     A'                     A"
 Frequencies --    163.2450               192.8744               199.0858
 Red. masses --      3.7556                 3.6040                 3.0305
 Frc consts  --      0.0590                 0.0790                 0.0708
 IR Inten    --      4.2653                 0.3637                 2.8207

                      7                      8                      9
                     A"                     A'                     A"
 Frequencies --    205.8101               226.8974               245.2284
 Red. masses --      3.3564                 5.5223                 3.4054
 Frc consts  --      0.0838                 0.1675                 0.1207
 IR Inten    --      2.5785                16.2192                 1.2946

                     10                     11                     12
                     A"                     A'                     A'
 Frequencies --    266.3320               266.7822               279.1562
 Red. masses --      3.6622                 3.4899                 1.7889
 Frc consts  --      0.1531                 0.1463                 0.0821
 IR Inten    --      0.5435                 0.3811                 2.1111

                     13                     14                     15
                     A"                     A"                     A'
 Frequencies --    279.2702               287.6446               287.6889
 Red. masses --      2.4208                 1.4281                 1.5522
 Frc consts  --      0.1112                 0.0696                 0.0757
 IR Inten    --      0.0855                 1.3289                 1.2018

                     16                     17                     18
                     A'                     A"                     A'
 Frequencies --    316.2314               319.1835               363.6996
 Red. masses --      1.1059                 1.1846                 4.4757
 Frc consts  --      0.0652                 0.0711                 0.3488
 IR Inten    --      0.8950                 0.1465                 7.9243

                     19                     20                     21
                     A"                     A'                     A"
 Frequencies --    410.5789               417.8912               461.4170
 Red. masses --      2.3203                 2.2601                 2.7490
 Frc consts  --      0.2305                 0.2325                 0.3448
 IR Inten    --      0.2956                 0.7161                 2.0526

                     22                     23                     24
                     A"                     A'                     A'
 Frequencies --    494.6484               501.3900               526.3889
 Red. masses --      2.9684                 3.1318                 2.8155
 Frc consts  --      0.4279                 0.4639                 0.4596
 IR Inten    --     16.6479                10.3777                 0.3968

                     25                     26                     27
                     A"                     A"                     A'
 Frequencies --    539.8170               556.5894               619.7336
 Red. masses --      3.6518                 3.2015                 6.6591
 Frc consts  --      0.6270                 0.5843                 1.5069
 IR Inten    --      0.0314                10.3356                67.6048

                     28                     29                     30
                     A'                     A"                     A'
 Frequencies --    627.1482               695.5103               724.7622
 Red. masses --      3.6164                 5.7293                 2.7335
 Frc consts  --      0.8380                 1.6329                 0.8460
 IR Inten    --      2.9168                 0.7667                 6.2654

                     31                     32                     33
                     A'                     A"                     A'
 Frequencies --    744.5729               853.7580               870.2516
 Red. masses --      3.2314                 1.4020                 2.3736
 Frc consts  --      1.0555                 0.6021                 1.0591
 IR Inten    --      8.3313                 7.6080                62.9335

                     34                     35                     36
                     A'                     A"                     A'
 Frequencies --    890.6719               892.5933               943.2237
 Red. masses --      3.3674                 2.8655                 2.8537
 Frc consts  --      1.5739                 1.3451                 1.4958
 IR Inten    --     17.2658                71.8362                55.5799

                     37                     38                     39
                     A"                     A'                     A"
 Frequencies --    993.4892               999.6310              1002.4043
 Red. masses --      2.1160                 2.0992                 2.8849
 Frc consts  --      1.2305                 1.2359                 1.7079
 IR Inten    --     10.8210                23.4596                 7.8659

                     40                     41                     42
                     A'                     A"                     A'
 Frequencies --   1018.9918              1048.5719              1050.4099
 Red. masses --      2.4487                 1.7736                 1.5934
 Frc consts  --      1.4981                 1.1489                 1.0358
 IR Inten    --     69.8872                 9.3919                13.0339

                     43                     44                     45
                     A"                     A'                     A"
 Frequencies --   1053.0312              1126.8232              1129.8177
 Red. masses --      2.8355                 4.6769                 1.2730
 Frc consts  --      1.8525                 3.4988                 0.9574
 IR Inten    --     19.7377                 2.6086                 0.4837

                     46                     47                     48
                     A'                     A"                     A'
 Frequencies --   1133.7600              1179.5679              1183.6423
 Red. masses --      1.2917                 1.5378                 1.4957
 Frc consts  --      0.9782                 1.2607                 1.2346
 IR Inten    --      3.0297                 0.3858                17.3677

                     49                     50                     51
                     A"                     A'                     A'
 Frequencies --   1210.5608              1213.9698              1221.3016
 Red. masses --      1.5998                 1.8693                 1.8900
 Frc consts  --      1.3813                 1.6231                 1.6610
 IR Inten    --      0.0993                26.1088                 5.2626

                     52                     53                     54
                     A"                     A"                     A"
 Frequencies --   1225.2311              1254.5434              1281.1270
 Red. masses --      1.6728                 4.9129                 2.1222
 Frc consts  --      1.4796                 4.5557                 2.0522
 IR Inten    --     17.4165                 4.8195                 1.0486

                     55                     56                     57
                     A'                     A"                     A'
 Frequencies --   1285.6928              1319.9967              1323.1937
 Red. masses --      2.1169                 1.3940                 1.4947
 Frc consts  --      2.0617                 1.4310                 1.5419
 IR Inten    --      4.8497                 2.8866                11.3741

                     58                     59                     60
                     A"                     A'                     A'
 Frequencies --   1387.5523              1397.0280              1432.2524
 Red. masses --      1.4275                 1.4883                 3.8548
 Frc consts  --      1.6193                 1.7114                 4.6589
 IR Inten    --      2.2812                 5.0792                50.6618

                     61                     62                     63
                     A'                     A"                     A"
 Frequencies --   1447.4707              1447.5296              1469.6880
 Red. masses --      1.1554                 1.1550                 1.1560
 Frc consts  --      1.4263                 1.4259                 1.4712
 IR Inten    --     12.2338                 0.0002                10.5365

                     64                     65                     66
                     A'                     A"                     A'
 Frequencies --   1471.1820              1483.4173              1483.8760
 Red. masses --      1.1383                 1.0582                 1.0536
 Frc consts  --      1.4516                 1.3719                 1.3668
 IR Inten    --      2.0172                 0.1042                 2.6578

                     67                     68                     69
                     A"                     A'                     A"
 Frequencies --   1485.6846              1486.6683              1497.6553
 Red. masses --      1.0851                 1.0939                 1.0723
 Frc consts  --      1.4112                 1.4244                 1.4170
 IR Inten    --      1.1845                 1.9866                13.8248

                     70                     71                     72
                     A'                     A"                     A'
 Frequencies --   1498.5376              1501.3149              1502.1525
 Red. masses --      1.0698                 1.0537                 1.0551
 Frc consts  --      1.4154                 1.3993                 1.4027
 IR Inten    --     39.2000                 7.1905                36.7912

                     73                     74                     75
                     A"                     A'                     A"
 Frequencies --   1506.3745              1506.8193              1533.2240
 Red. masses --      1.0452                 1.0433                 7.2762
 Frc consts  --      1.3974                 1.3956                10.0778
 IR Inten    --     32.7897                12.0725               176.8893

                     76                     77                     78
                     A"                     A'                     A'
 Frequencies --   1578.7828              1596.0946              1679.4161
 Red. masses --      6.6833                 9.1097                 7.7376
 Frc consts  --      9.8149                13.6732                12.8580
 IR Inten    --     57.2506              1281.7843               856.6830

                     79                     80                     81
                     A"                     A'                     A"
 Frequencies --   3026.0506              3026.0679              3027.0766
 Red. masses --      1.0462                 1.0460                 1.0462
 Frc consts  --      5.6443                 5.6435                 5.6481
 IR Inten    --      9.3396                52.7096               269.6073

                     82                     83                     84
                     A'                     A"                     A'
 Frequencies --   3028.4487              3067.3320              3067.7850
 Red. masses --      1.0463                 1.0601                 1.0600
 Frc consts  --      5.6537                 5.8764                 5.8776
 IR Inten    --     17.2849                69.9803                14.6325

                     85                     86                     87
                     A"                     A'                     A"
 Frequencies --   3119.0428              3119.1935              3127.5128
 Red. masses --      1.1052                 1.1051                 1.0904
 Frc consts  --      6.3346                 6.3350                 6.2840
 IR Inten    --     16.2723                 8.3319                14.7498

                     88                     89                     90
                     A'                     A"                     A'
 Frequencies --   3127.5579              3133.3777              3133.3917
 Red. masses --      1.0904                 1.0874                 1.0874
 Frc consts  --      6.2839                 6.2902                 6.2901
 IR Inten    --     13.6230                49.5458                 4.2819

                     91                     92                     93
                     A"                     A'                     A"
 Frequencies --   3168.0622              3168.1476              3173.6400
 Red. masses --      1.1055                 1.1055                 1.1062
 Frc consts  --      6.5376                 6.5379                 6.5642
 IR Inten    --      1.3121                26.8261                 1.1127

                     94                     95                     96
                     A'                     A"                     A'
 Frequencies --   3173.6916              3207.4990              3208.5467
 Red. masses --      1.1062                 1.0919                 1.0918
 Frc consts  --      6.5645                 6.6186                 6.6225
 IR Inten    --     20.8062                15.8539                17.3898

 - Thermochemistry -
 -------------------
 Temperature   298.150 Kelvin.  Pressure   1.00000 Atm.
 Atom     1 has atomic number  6 and mass  12.00000

 Molecular mass:   401.10829 amu.
 Principal axes and moments of inertia in atomic units:
                           1         2         3
     Eigenvalues --  3353.549924620.661237228.10655
           X            0.00266   0.00000   1.00000
           Y            1.00000   0.00000  -0.00266
           Z            0.00000   1.00000  -0.00000
 This molecule is an asymmetric top.
 Rotational symmetry number  1.
 Warning -- assumption of classical behavior for rotation
           may cause significant error
 Rotational temperatures (Kelvin)      0.02583     0.01874     0.01198
 Rotational constants (GHZ):           0.53816     0.39058     0.24968
 Zero-point vibrational energy     763413.7 (Joules/Mol)
                                  182.46025 (Kcal/Mol)
 Warning -- explicit consideration of  27 degrees of freedom as
           vibrations may cause significant error
 Vibrational temperatures:     86.49    97.35   120.93   234.87   277.50
          (Kelvin)            286.44   296.11   326.45   352.83   383.19
                              383.84   401.64   401.81   413.86   413.92
                              454.99   459.23   523.28   590.73   601.25
                              663.88   711.69   721.39   757.36   776.68
                              800.81   891.66   902.33  1000.68  1042.77
                             1071.27  1228.37  1252.10  1281.48  1284.24
                             1357.09  1429.41  1438.25  1442.24  1466.10
                             1508.66  1511.31  1515.08  1621.25  1625.56
                             1631.23  1697.14  1703.00  1741.73  1746.63
                             1757.18  1762.83  1805.01  1843.26  1849.83
                             1899.18  1903.78  1996.38  2010.01  2060.69
                             2082.59  2082.67  2114.55  2116.70  2134.31
                             2134.97  2137.57  2138.98  2154.79  2156.06
                             2160.06  2161.26  2167.34  2167.98  2205.97
                             2271.52  2296.42  2416.31  4353.81  4353.84
                             4355.29  4357.26  4413.21  4413.86  4487.61
                             4487.82  4499.79  4499.86  4508.23  4508.25
                             4558.13  4558.26  4566.16  4566.23  4614.88
                             4616.38

 Zero-point correction=                           0.290769 (Hartree/Particle)
 Thermal correction to Energy=                    0.306477
 Thermal correction to Enthalpy=                  0.307421
 Thermal correction to Gibbs Free Energy=         0.248285
 Sum of electronic and zero-point Energies=           -773.661005
 Sum of electronic and thermal Energies=              -773.645297
 Sum of electronic and thermal Enthalpies=            -773.644353
 Sum of electronic and thermal Free Energies=         -773.703489

                     E (Thermal)             CV                S
                      KCal/Mol        Cal/Mol-Kelvin    Cal/Mol-Kelvin
 Total                  192.317             61.908            124.462
 Electronic               0.000              0.000              0.000
 Translational            0.889              2.981             43.859
 Rotational               0.889              2.981             33.082
 Vibrational            190.540             55.947             47.521
 Vibration     1          0.597              1.973              4.454
 Vibration     2          0.598              1.970              4.220
 Vibration     3          0.601              1.960              3.794
 Vibration     4          0.623              1.888              2.512
 Vibration     5          0.635              1.850              2.200
 Vibration     6          0.637              1.841              2.142
 Vibration     7          0.640              1.832              2.081
 Vibration     8          0.651              1.800              1.903
 Vibration     9          0.660              1.771              1.765
 Vibration    10          0.672              1.735              1.620
 Vibration    11          0.672              1.734              1.617
 Vibration    12          0.679              1.712              1.539
 Vibration    13          0.680              1.712              1.538
 Vibration    14          0.685              1.697              1.488
 Vibration    15          0.685              1.697              1.488
 Vibration    16          0.703              1.643              1.330
 Vibration    17          0.705              1.637              1.314
 Vibration    18          0.737              1.547              1.106
 Vibration    19          0.775              1.447              0.925
 Vibration    20          0.781              1.431              0.899
 Vibration    21          0.819              1.336              0.762
 Vibration    22          0.850              1.262              0.672
 Vibration    23          0.857              1.247              0.655
 Vibration    24          0.881              1.192              0.595
 Vibration    25          0.895              1.162              0.566
 Vibration    26          0.912              1.125              0.531
 Vibration    27          0.980              0.990              0.417

 Optimization completed.
    -- Stationary point found.
 Normal termination of Gaussian 16 at Thu Mar  7 21:10:05 2024.
