 Gaussian 16, Revision C.01,
 Gaussian 16:  ES64L-G16RevC.01  3-Jul-2019

 ----------------------------------------------------------
 # wb97xd def2TZVPP SCRF=(solvent=dichloromethane) opt freq
 ----------------------------------------------------------

 ------------
 ZIrMeH_sigma
 ------------
 Symbolic Z-matrix:
 Charge =  0 Multiplicity = 1

 SCF Done:  E(RwB97XD) =  -814.485785598     A.U. after   16 cycles
 SCF Done:  E(RwB97XD) =  -814.491490077     A.U. after   13 cycles
 SCF Done:  E(RwB97XD) =  -814.491898783     A.U. after   13 cycles
 SCF Done:  E(RwB97XD) =  -814.492043027     A.U. after   13 cycles
 SCF Done:  E(RwB97XD) =  -814.492091131     A.U. after   12 cycles
 SCF Done:  E(RwB97XD) =  -814.492136507     A.U. after   13 cycles
 SCF Done:  E(RwB97XD) =  -814.492150335     A.U. after   12 cycles
 SCF Done:  E(RwB97XD) =  -814.492155032     A.U. after   10 cycles
 SCF Done:  E(RwB97XD) =  -814.492158786     A.U. after   10 cycles
 SCF Done:  E(RwB97XD) =  -814.492160356     A.U. after   10 cycles
 SCF Done:  E(RwB97XD) =  -814.492160422     A.U. after    9 cycles
 Optimization completed.
    -- Stationary point found.
 Normal termination of Gaussian 16 at Thu Mar  7 19:43:34 2024.

 ----------------------------------------------------------------------
 #N Geom=AllCheck Guess=TCheck SCRF=Check GenChk RwB97XD/def2TZVPP Freq
 ----------------------------------------------------------------------

 Structure from the checkpoint file:  "ZIrMeH_sigma.chk"
 ------------
 ZIrMeH_sigma
 ------------
 Charge =  0 Multiplicity = 1

                         Standard orientation:
 ---------------------------------------------------------------------
 Center     Atomic      Atomic             Coordinates (Angstroms)
 Number     Number       Type             X           Y           Z
 ---------------------------------------------------------------------
      1          6           0       -1.719779   -1.169047   -0.194734
      2          6           0       -1.719775    1.169051   -0.194733
      3          6           0       -3.069278   -1.215857   -0.008079
      4          6           0       -3.069274    1.215864   -0.008078
      5          6           0       -3.839225    0.000005    0.120194
      6          1           0       -3.585811   -2.165539    0.034650
      7          1           0       -3.585804    2.165549    0.034652
      8          8           0       -5.074408    0.000007    0.311574
      9          7           0       -1.055292    0.000001   -0.255735
     10          6           0       -0.819901   -2.340744   -0.479142
     11          1           0       -0.760649   -2.446559   -1.562982
     12          1           0       -1.215545   -3.273441   -0.072572
     13          6           0       -0.819894    2.340745   -0.479140
     14          1           0       -0.760644    2.446562   -1.562980
     15          1           0       -1.215535    3.273442   -0.072568
     16          7           0        0.575424   -2.111521    0.014627
     17          7           0        0.575431    2.111519    0.014627
     18          6           0        3.244308   -0.000001    0.423168
     19          1           0        2.733195   -0.000013    1.386687
     20          1           0        3.861291   -0.891794    0.343227
     21          1           0        3.861285    0.891798    0.343249
     22          6           0        1.500138   -2.945645   -0.772589
     23          1           0        2.506218   -2.829757   -0.376612
     24          1           0        1.215441   -4.000927   -0.716037
     25          1           0        1.486407   -2.618058   -1.808775
     26          6           0        0.647801   -2.534205    1.429962
     27          1           0        0.438370   -3.605138    1.515024
     28          1           0        1.642529   -2.331570    1.818797
     29          1           0       -0.080541   -1.978183    2.015114
     30          6           0        1.500146    2.945641   -0.772591
     31          1           0        1.215450    4.000923   -0.716041
     32          1           0        2.506226    2.829752   -0.376615
     33          1           0        1.486413    2.618053   -1.808777
     34          6           0        0.647813    2.534203    1.429961
     35          1           0        1.642541    2.331564    1.818794
     36          1           0        0.438386    3.605137    1.515024
     37          1           0       -0.080530    1.978184    2.015115
     38          1           0        2.620593    0.000012   -0.563358
     39         77           0        0.891670   -0.000001   -0.091889
 ---------------------------------------------------------------------

 SCF Done:  E(RwB97XD) =  -814.492160422     A.U. after    1 cycles

 The electronic state is 1-A.
 Alpha  occ. eigenvalues --  -19.17566 -14.50190 -14.50190 -14.45774 -10.33552
 Alpha  occ. eigenvalues --  -10.33043 -10.33043 -10.33002 -10.33000 -10.31516
 Alpha  occ. eigenvalues --  -10.31516 -10.31459 -10.31459 -10.29304 -10.26784
 Alpha  occ. eigenvalues --  -10.26784  -3.72889  -2.07285  -2.06898  -2.03791
 Alpha  occ. eigenvalues --   -1.08663  -1.07637  -1.06275  -1.04610  -0.90539
 Alpha  occ. eigenvalues --   -0.86194  -0.83738  -0.82427  -0.82403  -0.81747
 Alpha  occ. eigenvalues --   -0.80084  -0.73264  -0.72473  -0.70661  -0.66345
 Alpha  occ. eigenvalues --   -0.61789  -0.60355  -0.59290  -0.58647  -0.57911
 Alpha  occ. eigenvalues --   -0.57181  -0.56743  -0.56023  -0.53543  -0.52472
 Alpha  occ. eigenvalues --   -0.51429  -0.51057  -0.50956  -0.49951  -0.49548
 Alpha  occ. eigenvalues --   -0.49468  -0.48502  -0.47848  -0.47042  -0.46787
 Alpha  occ. eigenvalues --   -0.46642  -0.46539  -0.45962  -0.44272  -0.43464
 Alpha  occ. eigenvalues --   -0.42972  -0.41954  -0.37647  -0.33437  -0.30674
 Alpha  occ. eigenvalues --   -0.30567  -0.28263  -0.26334  -0.25212  -0.23574
 Alpha virt. eigenvalues --    0.05346   0.05863   0.09107   0.09353   0.10189
 Alpha virt. eigenvalues --    0.11560   0.12001   0.13893   0.15055   0.15093
 Alpha virt. eigenvalues --    0.15545   0.15745   0.15853   0.16430   0.16739

 Mulliken charges:
               1
     1  C    0.107549
     2  C    0.107550
     3  C   -0.304008
     4  C   -0.304008
     5  C    0.286210
     6  H    0.097835
     7  H    0.097835
     8  O   -0.576448
     9  N   -0.189735
    10  C   -0.078551
    11  H    0.118562
    12  H    0.113206
    13  C   -0.078551
    14  H    0.118562
    15  H    0.113206
    16  N   -0.058813
    17  N   -0.058813
    18  C   -0.333839
    19  H    0.129474
    20  H    0.114119
    21  H    0.114119
    22  C   -0.179888
    23  H    0.101747
    24  H    0.112090
    25  H    0.112093
    26  C   -0.205298
    27  H    0.104056
    28  H    0.111570
    29  H    0.124229
    30  C   -0.179888
    31  H    0.112090
    32  H    0.101747
    33  H    0.112093
    34  C   -0.205298
    35  H    0.111570
    36  H    0.104056
    37  H    0.124229
    38  H    0.052030
    39  Ir  -0.148690
 Sum of Mulliken charges =  -0.00000

 Dipole moment (field-independent basis, Debye):
    X=             14.6694    Y=             -0.0000    Z=              0.2372  Tot=             14.6713
 Quadrupole moment (field-independent basis, Debye-Ang):
   XX=           -179.7509   YY=            -90.0368   ZZ=           -120.8672
   XY=              0.0002   XZ=              6.5396   YZ=             -0.0000

  Exact polarizability:     365.597      -0.001     284.233      -9.399       0.000     217.573
 Approx polarizability:     285.570      -0.000     233.688      -8.498       0.000     203.251

                      1                      2                      3
                      A                      A                      A
 Frequencies --     58.6021                59.2971                69.7795
 Red. masses --      3.0167                 4.8728                 3.2946
 Frc consts  --      0.0061                 0.0101                 0.0095
 IR Inten    --      1.1559                 4.3623                 1.8551

                      4                      5                      6
                      A                      A                      A
 Frequencies --    117.7561               141.7169               171.2157
 Red. masses --      3.6945                 2.7875                 4.2660
 Frc consts  --      0.0302                 0.0330                 0.0737
 IR Inten    --     16.4674                 0.1092                 1.3332

                      7                      8                      9
                      A                      A                      A
 Frequencies --    181.4716               196.7517               207.3906
 Red. masses --      1.0941                 3.8826                 2.2815
 Frc consts  --      0.0212                 0.0886                 0.0578
 IR Inten    --      0.5318                 0.6116                 0.1805

                     10                     11                     12
                      A                      A                      A
 Frequencies --    210.6681               241.5378               247.5763
 Red. masses --      3.6206                 4.8246                 3.6234
 Frc consts  --      0.0947                 0.1658                 0.1309
 IR Inten    --      3.4295                 3.7931                 0.9903

                     13                     14                     15
                      A                      A                      A
 Frequencies --    264.5580               269.7092               271.5966
 Red. masses --      3.1889                 3.2953                 2.4052
 Frc consts  --      0.1315                 0.1412                 0.1045
 IR Inten    --      0.1674                 0.0915                 1.8332

                     16                     17                     18
                      A                      A                      A
 Frequencies --    283.2418               290.4127               295.9036
 Red. masses --      3.6711                 2.7302                 1.1697
 Frc consts  --      0.1735                 0.1357                 0.0603
 IR Inten    --      1.0013                 3.9177                 1.3461

                     19                     20                     21
                      A                      A                      A
 Frequencies --    296.0987               320.1553               321.1434
 Red. masses --      1.4663                 1.1050                 1.1361
 Frc consts  --      0.0757                 0.0667                 0.0690
 IR Inten    --      1.4171                 2.1610                 0.4427

                     22                     23                     24
                      A                      A                      A
 Frequencies --    363.9327               410.8010               417.0873
 Red. masses --      4.3395                 2.2838                 2.2818
 Frc consts  --      0.3386                 0.2271                 0.2339
 IR Inten    --      7.2571                 0.4248                 0.5419

                     25                     26                     27
                      A                      A                      A
 Frequencies --    421.2140               462.6546               474.3691
 Red. masses --      1.1802                 2.7662                 1.1071
 Frc consts  --      0.1234                 0.3489                 0.1468
 IR Inten    --     13.0957                 2.5532                19.4798

                     28                     29                     30
                      A                      A                      A
 Frequencies --    493.6550               501.9113               520.4793
 Red. masses --      2.8169                 3.1193                 2.7499
 Frc consts  --      0.4045                 0.4630                 0.4389
 IR Inten    --     14.0598                11.0201                 0.6959

                     31                     32                     33
                      A                      A                      A
 Frequencies --    540.1599               559.9413               621.2334
 Red. masses --      3.5994                 3.2604                 6.1526
 Frc consts  --      0.6188                 0.6023                 1.3990
 IR Inten    --      0.8588                12.2868                34.8113

                     34                     35                     36
                      A                      A                      A
 Frequencies --    631.3115               698.1881               728.5487
 Red. masses --      3.4911                 5.7286                 2.8577
 Frc consts  --      0.8198                 1.6453                 0.8937
 IR Inten    --      4.9361                 0.0637                 4.3459

                     37                     38                     39
                      A                      A                      A
 Frequencies --    752.5510               852.8558               869.7557
 Red. masses --      3.1483                 1.4013                 2.4090
 Frc consts  --      1.0505                 0.6005                 1.0737
 IR Inten    --     12.8507                 7.4460                65.0095

                     40                     41                     42
                      A                      A                      A
 Frequencies --    891.7980               892.9717               940.8039
 Red. masses --      3.3839                 2.8997                 2.8789
 Frc consts  --      1.5856                 1.3623                 1.5013
 IR Inten    --     17.6626                71.6047                55.0021

                     43                     44                     45
                      A                      A                      A
 Frequencies --    994.2504               999.2442               999.7684
 Red. masses --      2.0668                 2.1160                 2.9957
 Frc consts  --      1.2037                 1.2448                 1.7642
 IR Inten    --      9.1226                37.0643                15.2598

                     46                     47                     48
                      A                      A                      A
 Frequencies --   1016.5654              1048.8626              1050.4285
 Red. masses --      2.4560                 1.6875                 1.6032
 Frc consts  --      1.4954                 1.0938                 1.0422
 IR Inten    --     61.3416                 4.1119                14.3721

                     49                     50                     51
                      A                      A                      A
 Frequencies --   1056.5005              1129.4586              1131.4444
 Red. masses --      3.1522                 4.4504                 1.2685
 Frc consts  --      2.0730                 3.3449                 0.9567
 IR Inten    --     12.2244                19.4069                 0.8470

                     52                     53                     54
                      A                      A                      A
 Frequencies --   1135.0575              1155.7035              1180.0602
 Red. masses --      1.3047                 1.1824                 1.5145
 Frc consts  --      0.9904                 0.9305                 1.2425
 IR Inten    --      4.8807                 9.2688                 0.0105

                     55                     56                     57
                      A                      A                      A
 Frequencies --   1183.6527              1210.2758              1213.6261
 Red. masses --      1.4854                 1.6026                 1.8644
 Frc consts  --      1.2261                 1.3831                 1.6179
 IR Inten    --     16.5945                 0.1144                22.2228

                     58                     59                     60
                      A                      A                      A
 Frequencies --   1222.0463              1226.1893              1259.3741
 Red. masses --      1.9093                 1.6414                 5.4311
 Frc consts  --      1.6799                 1.4540                 5.0751
 IR Inten    --      4.4191                12.3200                 1.1335

                     61                     62                     63
                      A                      A                      A
 Frequencies --   1279.0976              1279.8139              1283.3948
 Red. masses --      2.0998                 1.1668                 2.0585
 Frc consts  --      2.0241                 1.1260                 1.9976
 IR Inten    --      1.3604                41.7969                 2.2287

                     64                     65                     66
                      A                      A                      A
 Frequencies --   1321.1354              1324.0034              1388.9250
 Red. masses --      1.3866                 1.4804                 1.4220
 Frc consts  --      1.4259                 1.5290                 1.6163
 IR Inten    --      2.2170                10.1170                 2.1587

                     67                     68                     69
                      A                      A                      A
 Frequencies --   1398.6230              1434.8862              1447.1416
 Red. masses --      1.4634                 3.8392                 1.1429
 Frc consts  --      1.6866                 4.6573                 1.4103
 IR Inten    --      7.6200                72.7859                 2.8763

                     70                     71                     72
                      A                      A                      A
 Frequencies --   1448.5547              1453.8811              1469.8053
 Red. masses --      1.1530                 1.1184                 1.1406
 Frc consts  --      1.4254                 1.3929                 1.4518
 IR Inten    --      0.0139                44.7430                 6.3770

                     73                     74                     75
                      A                      A                      A
 Frequencies --   1472.0091              1479.6660              1483.9831
 Red. masses --      1.1347                 1.0431                 1.0516
 Frc consts  --      1.4486                 1.3456                 1.3645
 IR Inten    --      2.5204                 5.7538                 0.2724

                     76                     77                     78
                      A                      A                      A
 Frequencies --   1484.6447              1487.3159              1487.9172
 Red. masses --      1.0487                 1.0915                 1.1073
 Frc consts  --      1.3619                 1.4225                 1.4443
 IR Inten    --      1.0670                 6.6341                 0.5127

                     79                     80                     81
                      A                      A                      A
 Frequencies --   1500.8976              1501.1110              1505.9578
 Red. masses --      1.0560                 1.0622                 1.0525
 Frc consts  --      1.4015                 1.4102                 1.4064
 IR Inten    --      5.0409                29.2374                 0.1602

                     82                     83                     84
                      A                      A                      A
 Frequencies --   1506.1719              1508.1977              1508.6276
 Red. masses --      1.0524                 1.0468                 1.0463
 Frc consts  --      1.4067                 1.4030                 1.4030
 IR Inten    --     63.2709                44.4774                 1.3956

                     85                     86                     87
                      A                      A                      A
 Frequencies --   1540.7681              1580.6112              1601.5330
 Red. masses --      7.6663                 6.7706                 9.1339
 Frc consts  --     10.7228                 9.9662                13.8032
 IR Inten    --    160.1225                44.5359              1211.0784

                     88                     89                     90
                      A                      A                      A
 Frequencies --   1678.8910              1794.7419              2206.7678
 Red. masses --      7.7185                 1.0248                 1.0813
 Frc consts  --     12.8183                 1.9449                 3.1026
 IR Inten    --    916.3586                96.3236               320.9912

                     91                     92                     93
                      A                      A                      A
 Frequencies --   3030.9988              3031.0723              3033.2626
 Red. masses --      1.0456                 1.0455                 1.0459
 Frc consts  --      5.6596                 5.6594                 5.6699
 IR Inten    --     18.4078                49.7712               235.8760

                     94                     95                     96
                      A                      A                      A
 Frequencies --   3034.5471              3066.0568              3068.4564
 Red. masses --      1.0459                 1.0366                 1.0599
 Frc consts  --      5.6748                 5.7417                 5.8799
 IR Inten    --     11.4222                 6.8213                68.6367

                     97                     98                     99
                      A                      A                      A
 Frequencies --   3068.9566              3120.2575              3120.4451
 Red. masses --      1.0598                 1.1056                 1.1055
 Frc consts  --      5.8811                 6.3420                 6.3425
 IR Inten    --     12.6258                15.4476                 8.2092

                    100                    101                    102
                      A                      A                      A
 Frequencies --   3133.6157              3133.7469              3135.3686
 Red. masses --      1.0894                 1.0894                 1.0890
 Frc consts  --      6.3029                 6.3035                 6.3077
 IR Inten    --      2.1233                15.2700                40.3433

                    103                    104                    105
                      A                      A                      A
 Frequencies --   3135.5460              3146.9158              3172.7382
 Red. masses --      1.0890                 1.0976                 1.1054
 Frc consts  --      6.3082                 6.4042                 6.5558
 IR Inten    --     22.2990                32.9169                11.4602

                    106                    107                    108
                      A                      A                      A
 Frequencies --   3173.4288              3173.6716              3174.8650
 Red. masses --      1.1062                 1.1059                 1.1058
 Frc consts  --      6.5637                 6.5629                 6.5671
 IR Inten    --     10.5226                 0.6046                 5.3027

                    109                    110                    111
                      A                      A                      A
 Frequencies --   3174.9224              3208.3820              3209.4397
 Red. masses --      1.1060                 1.0920                 1.0919
 Frc consts  --      6.5683                 6.6226                 6.6269
 IR Inten    --     41.5169                16.0375                15.8317

 - Thermochemistry -
 -------------------
 Temperature   298.150 Kelvin.  Pressure   1.00000 Atm.
 Atom     1 has atomic number  6 and mass  12.00000

 Molecular mass:   417.13959 amu.
 Principal axes and moments of inertia in atomic units:
                           1         2         3
     Eigenvalues --  3392.207405289.668407889.72758
           X            0.99998   0.00000   0.00642
           Y           -0.00000   1.00000  -0.00000
           Z           -0.00642   0.00000   0.99998
 This molecule is an asymmetric top.
 Rotational symmetry number  1.
 Warning -- assumption of classical behavior for rotation
           may cause significant error
 Rotational temperatures (Kelvin)      0.02553     0.01637     0.01098
 Rotational constants (GHZ):           0.53203     0.34118     0.22875
 Zero-point vibrational energy     886319.7 (Joules/Mol)
                                  211.83549 (Kcal/Mol)
 Warning -- explicit consideration of  32 degrees of freedom as
           vibrations may cause significant error
 Vibrational temperatures:     84.32    85.32   100.40   169.42   203.90
          (Kelvin)            246.34   261.10   283.08   298.39   303.10
                              347.52   356.21   380.64   388.05   390.77
                              407.52   417.84   425.74   426.02   460.63
                              462.05   523.62   591.05   600.10   606.03
                              665.66   682.51   710.26   722.14   748.85
                              777.17   805.63   893.82   908.32  1004.54
                             1048.22  1082.75  1227.07  1251.38  1283.10
                             1284.79  1353.61  1430.50  1437.69  1438.44
                             1462.61  1509.08  1511.33  1520.07  1625.04
                             1627.90  1633.09  1662.80  1697.84  1703.01
                             1741.32  1746.14  1758.25  1764.21  1811.96
                             1840.34  1841.37  1846.52  1900.82  1904.95
                             1998.35  2012.31  2064.48  2082.11  2084.15
                             2091.81  2114.72  2117.89  2128.91  2135.12
                             2136.07  2139.92  2140.78  2159.46  2159.76
                             2166.74  2167.05  2169.96  2170.58  2216.82
                             2274.15  2304.25  2415.55  2582.23  3175.05
                             4360.93  4361.04  4364.19  4366.04  4411.37
                             4414.82  4415.54  4489.35  4489.62  4508.57
                             4508.76  4511.10  4511.35  4527.71  4564.86
                             4565.86  4566.21  4567.92  4568.01  4616.15
                             4617.67

 Zero-point correction=                           0.337581 (Hartree/Particle)
 Thermal correction to Energy=                    0.356201
 Thermal correction to Enthalpy=                  0.357145
 Thermal correction to Gibbs Free Energy=         0.292333
 Sum of electronic and zero-point Energies=           -814.154579
 Sum of electronic and thermal Energies=              -814.135960
 Sum of electronic and thermal Enthalpies=            -814.135015
 Sum of electronic and thermal Free Energies=         -814.199827

                     E (Thermal)             CV                S
                      KCal/Mol        Cal/Mol-Kelvin    Cal/Mol-Kelvin
 Total                  223.519             72.502            136.408
 Electronic               0.000              0.000              0.000
 Translational            0.889              2.981             43.975
 Rotational               0.889              2.981             33.315
 Vibrational            221.742             66.540             59.118
 Vibration     1          0.596              1.974              4.504
 Vibration     2          0.597              1.974              4.480
 Vibration     3          0.598              1.969              4.160
 Vibration     4          0.608              1.935              3.137
 Vibration     5          0.615              1.912              2.781
 Vibration     6          0.626              1.878              2.422
 Vibration     7          0.630              1.865              2.313
 Vibration     8          0.636              1.844              2.163
 Vibration     9          0.641              1.829              2.067
 Vibration    10          0.643              1.825              2.038
 Vibration    11          0.658              1.777              1.792
 Vibration    12          0.661              1.767              1.748
 Vibration    13          0.671              1.738              1.631
 Vibration    14          0.674              1.729              1.598
 Vibration    15          0.675              1.726              1.586
 Vibration    16          0.682              1.705              1.514
 Vibration    17          0.686              1.692              1.472
 Vibration    18          0.690              1.681              1.440
 Vibration    19          0.690              1.681              1.439
 Vibration    20          0.706              1.635              1.309
 Vibration    21          0.707              1.633              1.304
 Vibration    22          0.737              1.547              1.105
 Vibration    23          0.775              1.447              0.924
 Vibration    24          0.780              1.433              0.902
 Vibration    25          0.784              1.424              0.888
 Vibration    26          0.820              1.333              0.758
 Vibration    27          0.831              1.307              0.725
 Vibration    28          0.849              1.264              0.674
 Vibration    29          0.857              1.246              0.653
 Vibration    30          0.875              1.205              0.609
 Vibration    31          0.895              1.161              0.565
 Vibration    32          0.916              1.118              0.524

 Optimization completed.
    -- Stationary point found.
 Normal termination of Gaussian 16 at Fri Mar  8 06:19:20 2024.
