 Gaussian 16, Revision C.01,
 Gaussian 16:  ES64L-G16RevC.01  3-Jul-2019

 ----------------------------------------------------------
 # wb97xd def2TZVPP SCRF=(solvent=dichloromethane) opt freq
 ----------------------------------------------------------

 ------
 ZIrMeH
 ------
 Symbolic Z-matrix:
 Charge =  0 Multiplicity = 1

 SCF Done:  E(RwB97XD) =  -814.497478869     A.U. after   17 cycles
 SCF Done:  E(RwB97XD) =  -814.503280874     A.U. after   14 cycles
 SCF Done:  E(RwB97XD) =  -814.503884453     A.U. after   13 cycles
 SCF Done:  E(RwB97XD) =  -814.504231772     A.U. after   14 cycles
 SCF Done:  E(RwB97XD) =  -814.504464929     A.U. after   12 cycles
 SCF Done:  E(RwB97XD) =  -814.504736019     A.U. after   14 cycles
 SCF Done:  E(RwB97XD) =  -814.505003572     A.U. after   14 cycles
 SCF Done:  E(RwB97XD) =  -814.505565952     A.U. after   15 cycles
 SCF Done:  E(RwB97XD) =  -814.505464650     A.U. after   14 cycles
 SCF Done:  E(RwB97XD) =  -814.506101104     A.U. after   15 cycles
 SCF Done:  E(RwB97XD) =  -814.506169646     A.U. after   13 cycles
 SCF Done:  E(RwB97XD) =  -814.506432770     A.U. after    8 cycles
 SCF Done:  E(RwB97XD) =  -814.506460291     A.U. after   12 cycles
 SCF Done:  E(RwB97XD) =  -814.506473542     A.U. after   12 cycles
 SCF Done:  E(RwB97XD) =  -814.506476301     A.U. after   10 cycles
 SCF Done:  E(RwB97XD) =  -814.506472509     A.U. after   10 cycles
 SCF Done:  E(RwB97XD) =  -814.506474239     A.U. after   10 cycles
 SCF Done:  E(RwB97XD) =  -814.506476246     A.U. after    9 cycles
 SCF Done:  E(RwB97XD) =  -814.506473489     A.U. after   10 cycles
 Optimization completed.
    -- Stationary point found.
 Normal termination of Gaussian 16 at Fri Mar  8 03:21:13 2024.

 ----------------------------------------------------------------------
 #N Geom=AllCheck Guess=TCheck SCRF=Check GenChk RwB97XD/def2TZVPP Freq
 ----------------------------------------------------------------------

 Structure from the checkpoint file:  "ZIrMeH.chk"
 ------
 ZIrMeH
 ------
 Charge =  0 Multiplicity = 1

                         Standard orientation:
 ---------------------------------------------------------------------
 Center     Atomic      Atomic             Coordinates (Angstroms)
 Number     Number       Type             X           Y           Z
 ---------------------------------------------------------------------
      1          6           0       -1.724323   -1.168817   -0.281111
      2          6           0       -1.724323    1.168817   -0.281111
      3          6           0       -3.060057   -1.220810   -0.012101
      4          6           0       -3.060058    1.220810   -0.012102
      5          6           0       -3.822191   -0.000000    0.144282
      6          1           0       -3.571259   -2.168428    0.093540
      7          1           0       -3.571260    2.168427    0.093539
      8          8           0       -5.044140   -0.000000    0.403298
      9          7           0       -1.078654   -0.000000   -0.411528
     10          6           0       -0.803149   -2.336004   -0.537465
     11          1           0       -0.692945   -2.435410   -1.617690
     12          1           0       -1.207799   -3.273605   -0.153184
     13          6           0       -0.803150    2.336004   -0.537466
     14          1           0       -0.692945    2.435410   -1.617690
     15          1           0       -1.207800    3.273605   -0.153184
     16          7           0        0.576821   -2.112346    0.019242
     17          7           0        0.576821    2.112346    0.019242
     18          6           0        2.950002    0.000000    0.539938
     19          1           0        2.997849    0.000001    1.641289
     20          1           0        3.529136   -0.874676    0.217461
     21          1           0        3.529137    0.874675    0.217459
     22          6           0        1.525873   -2.975052   -0.706048
     23          1           0        2.514382   -2.856116   -0.271446
     24          1           0        1.222921   -4.023595   -0.635590
     25          1           0        1.558606   -2.673839   -1.749487
     26          6           0        0.581520   -2.497773    1.447885
     27          1           0        0.325995   -3.554167    1.559405
     28          1           0        1.570195   -2.317450    1.862656
     29          1           0       -0.150556   -1.900522    1.990739
     30          6           0        1.525873    2.975052   -0.706048
     31          1           0        1.222920    4.023595   -0.635590
     32          1           0        2.514382    2.856116   -0.271445
     33          1           0        1.558606    2.673839   -1.749487
     34          6           0        0.581519    2.497773    1.447885
     35          1           0        1.570194    2.317450    1.862656
     36          1           0        0.325994    3.554167    1.559405
     37          1           0       -0.150557    1.900522    1.990739
     38          1           0        1.426372    0.000000   -1.532625
     39         77           0        0.937681    0.000000   -0.082543
 ---------------------------------------------------------------------

 SCF Done:  E(RwB97XD) =  -814.506473489     A.U. after    1 cycles

 The electronic state is 1-A.
 Alpha  occ. eigenvalues --  -19.17768 -14.50883 -14.50883 -14.44394 -10.33783
 Alpha  occ. eigenvalues --  -10.33315 -10.33315 -10.33067 -10.33064 -10.32047
 Alpha  occ. eigenvalues --  -10.32047 -10.31566 -10.31566 -10.26978 -10.26978
 Alpha  occ. eigenvalues --  -10.23169  -3.76866  -2.10172  -2.09830  -2.09221
 Alpha  occ. eigenvalues --   -1.08774  -1.07805  -1.06622  -1.04691  -0.90583
 Alpha  occ. eigenvalues --   -0.86025  -0.83843  -0.82866  -0.82781  -0.80275
 Alpha  occ. eigenvalues --   -0.73873  -0.73472  -0.72706  -0.70682  -0.66449
 Alpha  occ. eigenvalues --   -0.61851  -0.60520  -0.59378  -0.58865  -0.58119
 Alpha  occ. eigenvalues --   -0.57597  -0.56856  -0.56341  -0.52600  -0.52018
 Alpha  occ. eigenvalues --   -0.51081  -0.50237  -0.49738  -0.48878  -0.48113
 Alpha  occ. eigenvalues --   -0.47773  -0.47427  -0.47231  -0.46937  -0.46426
 Alpha  occ. eigenvalues --   -0.44938  -0.44548  -0.43978  -0.43916  -0.43751
 Alpha  occ. eigenvalues --   -0.42789  -0.42453  -0.38315  -0.33785  -0.32373
 Alpha  occ. eigenvalues --   -0.31477  -0.30735  -0.30556  -0.28312  -0.25653
 Alpha virt. eigenvalues --    0.03260   0.05673   0.06492   0.09008   0.10005
 Alpha virt. eigenvalues --    0.11613   0.12435   0.13748   0.14775   0.15099
 Alpha virt. eigenvalues --    0.15470   0.15776   0.16407   0.16582   0.16669

 Mulliken charges:
               1
     1  C    0.103738
     2  C    0.103738
     3  C   -0.288327
     4  C   -0.288326
     5  C    0.292056
     6  H    0.099608
     7  H    0.099608
     8  O   -0.572189
     9  N   -0.299785
    10  C   -0.091353
    11  H    0.122314
    12  H    0.114401
    13  C   -0.091353
    14  H    0.122314
    15  H    0.114401
    16  N   -0.040564
    17  N   -0.040564
    18  C   -0.645153
    19  H    0.076298
    20  H    0.072859
    21  H    0.072859
    22  C   -0.187000
    23  H    0.109245
    24  H    0.114351
    25  H    0.108889
    26  C   -0.215689
    27  H    0.108916
    28  H    0.123200
    29  H    0.118429
    30  C   -0.187000
    31  H    0.114351
    32  H    0.109245
    33  H    0.108889
    34  C   -0.215689
    35  H    0.123200
    36  H    0.108916
    37  H    0.118429
    38  H   -0.048828
    39  Ir   0.451565
 Sum of Mulliken charges =  -0.00000

 Dipole moment (field-independent basis, Debye):
    X=             10.4388    Y=              0.0000    Z=              0.2135  Tot=             10.4410
 Quadrupole moment (field-independent basis, Debye-Ang):
   XX=           -195.9747   YY=            -88.2785   ZZ=           -118.4066
   XY=             -0.0000   XZ=              4.8565   YZ=             -0.0000

  Exact polarizability:     350.537      -0.000     280.827      -5.420       0.000     198.029
 Approx polarizability:     274.338       0.000     232.099      -9.131      -0.000     193.868

                      1                      2                      3
                      A                      A                      A
 Frequencies --     58.6383                67.9701                87.5250
 Red. masses --      2.4522                 3.5987                 4.9225
 Frc consts  --      0.0050                 0.0098                 0.0222
 IR Inten    --      0.6084                 1.5522                15.4816

                      4                      5                      6
                      A                      A                      A
 Frequencies --     87.8423               146.8889               179.8726
 Red. masses --      1.1448                 3.1165                 2.5607
 Frc consts  --      0.0052                 0.0396                 0.0488
 IR Inten    --      0.4589                 0.1590                 0.1526

                      7                      8                      9
                      A                      A                      A
 Frequencies --    183.6475               196.3832               199.1866
 Red. masses --      4.4081                 3.3267                 2.5967
 Frc consts  --      0.0876                 0.0756                 0.0607
 IR Inten    --      0.9274                 1.3689                 3.2710

                     10                     11                     12
                      A                      A                      A
 Frequencies --    217.7210               232.7668               238.2920
 Red. masses --      3.5224                 3.3997                 3.0694
 Frc consts  --      0.0984                 0.1085                 0.1027
 IR Inten    --      1.6461                 1.9884                 4.5592

                     13                     14                     15
                      A                      A                      A
 Frequencies --    249.1960               263.0999               280.3463
 Red. masses --      2.0197                 2.0784                 1.8209
 Frc consts  --      0.0739                 0.0848                 0.0843
 IR Inten    --      0.8117                 0.0023                 0.5319

                     16                     17                     18
                      A                      A                      A
 Frequencies --    285.9168               288.6672               291.2503
 Red. masses --      1.6104                 4.3290                 2.2748
 Frc consts  --      0.0776                 0.2125                 0.1137
 IR Inten    --      1.2170                 2.0969                 4.8971

                     19                     20                     21
                      A                      A                      A
 Frequencies --    307.0626               308.7359               356.2893
 Red. masses --      1.1090                 1.1828                 4.2728
 Frc consts  --      0.0616                 0.0664                 0.3196
 IR Inten    --      2.8358                 4.1033                28.3800

                     22                     23                     24
                      A                      A                      A
 Frequencies --    406.5442               413.2226               443.5295
 Red. masses --      2.3546                 2.3402                 1.0250
 Frc consts  --      0.2293                 0.2354                 0.1188
 IR Inten    --      1.5315                 1.3235                14.3118

                     25                     26                     27
                      A                      A                      A
 Frequencies --    460.2617               490.4530               494.4032
 Red. masses --      2.7796                 2.6774                 3.0467
 Frc consts  --      0.3469                 0.3794                 0.4388
 IR Inten    --      5.4205                20.4379                33.2228

                     28                     29                     30
                      A                      A                      A
 Frequencies --    517.0791               532.8233               534.2323
 Red. masses --      2.7641                 3.9643                 3.3472
 Frc consts  --      0.4354                 0.6631                 0.5628
 IR Inten    --      5.4896                43.3991                 1.1043

                     31                     32                     33
                      A                      A                      A
 Frequencies --    562.5397               587.8050               595.9604
 Red. masses --      2.9752                 1.1106                 7.0255
 Frc consts  --      0.5547                 0.2261                 1.4702
 IR Inten    --      6.6815                13.9290                13.7695

                     34                     35                     36
                      A                      A                      A
 Frequencies --    636.8482               696.2233               729.8137
 Red. masses --      3.2899                 5.6077                 2.9435
 Frc consts  --      0.7861                 1.6015                 0.9237
 IR Inten    --      1.6307                 0.4116                 1.7108

                     37                     38                     39
                      A                      A                      A
 Frequencies --    758.5881               777.2067               806.5120
 Red. masses --      1.9624                 1.6847                 1.2356
 Frc consts  --      0.6654                 0.5996                 0.4735
 IR Inten    --     12.3904                 1.2557                 1.0593

                     40                     41                     42
                      A                      A                      A
 Frequencies --    852.3806               868.3189               888.5709
 Red. masses --      1.4968                 2.5957                 2.6187
 Frc consts  --      0.6407                 1.1531                 1.2182
 IR Inten    --     16.8349                61.9279                70.1017

                     43                     44                     45
                      A                      A                      A
 Frequencies --    890.7287               932.5119               989.0317
 Red. masses --      3.1539                 2.9184                 2.1867
 Frc consts  --      1.4743                 1.4952                 1.2603
 IR Inten    --     26.6551                56.9686                 0.0957

                     46                     47                     48
                      A                      A                      A
 Frequencies --    990.5100               995.4984              1014.5166
 Red. masses --      2.2528                 2.9374                 2.4541
 Frc consts  --      1.3022                 1.7151                 1.4882
 IR Inten    --    103.6879                27.3761                28.8298

                     49                     50                     51
                      A                      A                      A
 Frequencies --   1050.8988              1054.7424              1055.0847
 Red. masses --      2.4903                 1.6397                 1.9749
 Frc consts  --      1.6204                 1.0748                 1.2953
 IR Inten    --     18.6542                20.9399                 2.2595

                     52                     53                     54
                      A                      A                      A
 Frequencies --   1092.3393              1130.7731              1133.3541
 Red. masses --      4.4865                 1.2637                 1.2646
 Frc consts  --      3.1541                 0.9520                 0.9571
 IR Inten    --    112.8544                 0.3186                 1.6131

                     55                     56                     57
                      A                      A                      A
 Frequencies --   1180.3370              1183.4687              1210.9316
 Red. masses --      1.4522                 1.4564                 1.8980
 Frc consts  --      1.1920                 1.2018                 1.6398
 IR Inten    --      0.2209                15.0825                 8.5019

                     58                     59                     60
                      A                      A                      A
 Frequencies --   1211.8252              1225.9031              1228.4733
 Red. masses --      1.5915                 1.9181                 1.7097
 Frc consts  --      1.3770                 1.6983                 1.5202
 IR Inten    --      0.0313                 7.7073                11.1874

                     61                     62                     63
                      A                      A                      A
 Frequencies --   1258.3483              1265.5538              1277.6962
 Red. masses --      5.9162                 1.1995                 1.9912
 Frc consts  --      5.5195                 1.1319                 1.9152
 IR Inten    --      0.5303                 5.4384                 2.8633

                     64                     65                     66
                      A                      A                      A
 Frequencies --   1282.3022              1319.7670              1321.6709
 Red. masses --      2.0075                 1.3887                 1.4918
 Frc consts  --      1.9449                 1.4252                 1.5353
 IR Inten    --      0.5300                 2.1204                11.4011

                     67                     68                     69
                      A                      A                      A
 Frequencies --   1388.3837              1397.1447              1431.1345
 Red. masses --      1.4072                 1.4324                 3.9717
 Frc consts  --      1.5982                 1.6474                 4.7927
 IR Inten    --      2.5815                 8.5074               133.8992

                     70                     71                     72
                      A                      A                      A
 Frequencies --   1449.8916              1450.8876              1457.9956
 Red. masses --      1.1349                 1.1542                 1.0780
 Frc consts  --      1.4056                 1.4316                 1.3501
 IR Inten    --      0.3205                 3.8522                 0.7614

                     73                     74                     75
                      A                      A                      A
 Frequencies --   1472.1117              1472.1732              1476.2065
 Red. masses --      1.1437                 1.1259                 1.0690
 Frc consts  --      1.4603                 1.4376                 1.3725
 IR Inten    --      7.4829                 8.0752                 3.0739

                     76                     77                     78
                      A                      A                      A
 Frequencies --   1486.6986              1487.4115              1487.7058
 Red. masses --      1.0410                 1.0406                 1.1121
 Frc consts  --      1.3557                 1.3565                 1.4502
 IR Inten    --      0.0665                 0.5696                 3.6258

                     79                     80                     81
                      A                      A                      A
 Frequencies --   1492.3274              1499.8925              1501.2727
 Red. masses --      1.1266                 1.0647                 1.0573
 Frc consts  --      1.4783                 1.4113                 1.4041
 IR Inten    --      1.2851                 8.7238                28.6327

                     82                     83                     84
                      A                      A                      A
 Frequencies --   1506.5717              1508.3992              1508.5953
 Red. masses --      1.0468                 1.0456                 1.0461
 Frc consts  --      1.3998                 1.4017                 1.4027
 IR Inten    --     19.7399                 7.6326                33.7604

                     85                     86                     87
                      A                      A                      A
 Frequencies --   1509.5132              1549.5524              1576.3115
 Red. masses --      1.0482                 7.9910                 6.8991
 Frc consts  --      1.4072                11.3048                10.1001
 IR Inten    --     45.1674               153.7764                57.7795

                     88                     89                     90
                      A                      A                      A
 Frequencies --   1604.4545              1671.1759              2382.6058
 Red. masses --      9.3572                 7.5820                 1.0132
 Frc consts  --     14.1922                12.4762                 3.3889
 IR Inten    --   1020.5919               914.7368                79.5386

                     91                     92                     93
                      A                      A                      A
 Frequencies --   2950.2532              3011.8518              3033.9104
 Red. masses --      1.0454                 1.0855                 1.0990
 Frc consts  --      5.3613                 5.8016                 5.9603
 IR Inten    --    148.6930               138.9367               105.8910

                     94                     95                     96
                      A                      A                      A
 Frequencies --   3040.6674              3040.8962              3044.3336
 Red. masses --      1.0449                 1.0435                 1.0384
 Frc consts  --      5.6921                 5.6852                 5.6701
 IR Inten    --    100.7614                32.4353                88.6590

                     97                     98                     99
                      A                      A                      A
 Frequencies --   3045.3482              3073.9535              3074.5417
 Red. masses --      1.0392                 1.0596                 1.0595
 Frc consts  --      5.6784                 5.8994                 5.9010
 IR Inten    --     21.1045                63.8885                10.7699

                    100                    101                    102
                      A                      A                      A
 Frequencies --   3126.4001              3126.5793              3126.8112
 Red. masses --      1.1027                 1.1033                 1.1048
 Frc consts  --      6.3502                 6.3545                 6.3639
 IR Inten    --     19.3455                 8.4666                53.9436

                    103                    104                    105
                      A                      A                      A
 Frequencies --   3127.1449              3144.1826              3144.2715
 Red. masses --      1.1040                 1.0905                 1.0905
 Frc consts  --      6.3611                 6.3517                 6.3521
 IR Inten    --      2.5231                10.3878                17.4154

                    106                    107                    108
                      A                      A                      A
 Frequencies --   3164.8617              3164.8687              3183.7417
 Red. masses --      1.1045                 1.1046                 1.1060
 Frc consts  --      6.5184                 6.5185                 6.6048
 IR Inten    --     17.9221                 0.1255                 1.8065

                    109                    110                    111
                      A                      A                      A
 Frequencies --   3183.7957              3208.7600              3209.7689
 Red. masses --      1.1060                 1.0921                 1.0921
 Frc consts  --      6.6051                 6.6248                 6.6294
 IR Inten    --     24.2547                16.2608                15.5200

 - Thermochemistry -
 -------------------
 Temperature   298.150 Kelvin.  Pressure   1.00000 Atm.
 Atom     1 has atomic number  6 and mass  12.00000

 Molecular mass:   417.13959 amu.
 Principal axes and moments of inertia in atomic units:
                           1         2         3
     Eigenvalues --  3416.929265237.672277807.77420
           X            0.99998  -0.00000   0.00550
           Y            0.00000   1.00000   0.00000
           Z           -0.00550  -0.00000   0.99998
 This molecule is an asymmetric top.
 Rotational symmetry number  1.
 Warning -- assumption of classical behavior for rotation
           may cause significant error
 Rotational temperatures (Kelvin)      0.02535     0.01654     0.01109
 Rotational constants (GHZ):           0.52818     0.34457     0.23115
 Zero-point vibrational energy     878491.1 (Joules/Mol)
                                  209.96441 (Kcal/Mol)
 Warning -- explicit consideration of  33 degrees of freedom as
           vibrations may cause significant error
 Vibrational temperatures:     84.37    97.79   125.93   126.39   211.34
          (Kelvin)            258.80   264.23   282.55   286.59   313.25
                              334.90   342.85   358.54   378.54   403.36
                              411.37   415.33   419.04   441.79   444.20
                              512.62   584.93   594.54   638.14   662.21
                              705.65   711.34   743.96   766.61   768.64
                              809.37   845.72   857.45   916.28  1001.71
                             1050.04  1091.44  1118.23  1160.39  1226.39
                             1249.32  1278.46  1281.56  1341.68  1423.00
                             1425.12  1432.30  1459.66  1512.01  1517.54
                             1518.03  1571.63  1626.93  1630.64  1698.24
                             1702.75  1742.26  1743.55  1763.80  1767.50
                             1810.48  1820.85  1838.32  1844.95  1898.85
                             1901.59  1997.57  2010.18  2059.08  2086.07
                             2087.50  2097.73  2118.04  2118.13  2123.93
                             2139.03  2140.05  2140.48  2147.13  2158.01
                             2160.00  2167.62  2170.25  2170.53  2171.85
                             2229.46  2267.96  2308.45  2404.45  3428.04
                             4244.76  4333.38  4365.12  4374.84  4375.17
                             4380.12  4381.58  4422.73  4423.58  4498.19
                             4498.45  4498.78  4499.26  4523.78  4523.91
                             4553.53  4553.54  4580.69  4580.77  4616.69
                             4618.14

 Zero-point correction=                           0.334600 (Hartree/Particle)
 Thermal correction to Energy=                    0.353147
 Thermal correction to Enthalpy=                  0.354091
 Thermal correction to Gibbs Free Energy=         0.289557
 Sum of electronic and zero-point Energies=           -814.171874
 Sum of electronic and thermal Energies=              -814.153326
 Sum of electronic and thermal Enthalpies=            -814.152382
 Sum of electronic and thermal Free Energies=         -814.216916

                     E (Thermal)             CV                S
                      KCal/Mol        Cal/Mol-Kelvin    Cal/Mol-Kelvin
 Total                  221.603             73.048            135.823
 Electronic               0.000              0.000              0.000
 Translational            0.889              2.981             43.975
 Rotational               0.889              2.981             33.302
 Vibrational            219.826             67.087             58.546
 Vibration     1          0.596              1.974              4.502
 Vibration     2          0.598              1.969              4.211
 Vibration     3          0.601              1.958              3.715
 Vibration     4          0.601              1.958              3.708
 Vibration     5          0.617              1.906              2.712
 Vibration     6          0.629              1.867              2.330
 Vibration     7          0.631              1.862              2.291
 Vibration     8          0.636              1.845              2.167
 Vibration     9          0.637              1.841              2.141
 Vibration    10          0.646              1.814              1.978
 Vibration    11          0.654              1.791              1.858
 Vibration    12          0.656              1.782              1.816
 Vibration    13          0.662              1.764              1.736
 Vibration    14          0.670              1.740              1.641
 Vibration    15          0.680              1.710              1.532
 Vibration    16          0.684              1.700              1.498
 Vibration    17          0.685              1.695              1.482
 Vibration    18          0.687              1.690              1.467
 Vibration    19          0.697              1.660              1.378
 Vibration    20          0.698              1.657              1.369
 Vibration    21          0.732              1.562              1.138
 Vibration    22          0.771              1.456              0.939
 Vibration    23          0.777              1.442              0.915
 Vibration    24          0.803              1.375              0.816
 Vibration    25          0.818              1.338              0.765
 Vibration    26          0.846              1.271              0.682
 Vibration    27          0.850              1.262              0.672
 Vibration    28          0.872              1.212              0.617
 Vibration    29          0.888              1.177              0.581
 Vibration    30          0.889              1.174              0.578
 Vibration    31          0.918              1.112              0.519
 Vibration    32          0.945              1.058              0.471
 Vibration    33          0.954              1.040              0.457

 Optimization completed.
    -- Stationary point found.
 Normal termination of Gaussian 16 at Fri Mar  8 13:35:54 2024.
