 Gaussian 16, Revision C.01,
 Gaussian 16:  ES64L-G16RevC.01  3-Jul-2019

 ----------------------------------------------------------
 # wb97xd def2TZVPP SCRF=(solvent=dichloromethane) opt freq
 ----------------------------------------------------------

 ---
 ZPt
 ---
 Symbolic Z-matrix:
 Charge =  1 Multiplicity = 1

 SCF Done:  E(RwB97XD) =  -788.811354791     A.U. after   19 cycles
 SCF Done:  E(RwB97XD) =  -788.817320406     A.U. after   15 cycles
 SCF Done:  E(RwB97XD) =  -788.816436054     A.U. after   15 cycles
 SCF Done:  E(RwB97XD) =  -788.819903622     A.U. after   15 cycles
 SCF Done:  E(RwB97XD) =  -788.821241939     A.U. after   15 cycles
 SCF Done:  E(RwB97XD) =  -788.821102379     A.U. after   15 cycles
 SCF Done:  E(RwB97XD) =  -788.821795648     A.U. after   14 cycles
 SCF Done:  E(RwB97XD) =  -788.821804253     A.U. after   13 cycles
 SCF Done:  E(RwB97XD) =  -788.821822710     A.U. after   12 cycles
 SCF Done:  E(RwB97XD) =  -788.821776243     A.U. after   13 cycles
 SCF Done:  E(RwB97XD) =  -788.821859390     A.U. after    6 cycles
 SCF Done:  E(RwB97XD) =  -788.821830962     A.U. after   13 cycles
 SCF Done:  E(RwB97XD) =  -788.821867269     A.U. after   13 cycles
 SCF Done:  E(RwB97XD) =  -788.821816860     A.U. after   13 cycles
 SCF Done:  E(RwB97XD) =  -788.821871530     A.U. after   10 cycles
 SCF Done:  E(RwB97XD) =  -788.821871310     A.U. after   10 cycles
 SCF Done:  E(RwB97XD) =  -788.821871312     A.U. after    9 cycles
 SCF Done:  E(RwB97XD) =  -788.821873267     A.U. after   11 cycles
 SCF Done:  E(RwB97XD) =  -788.821871517     A.U. after   11 cycles
 Optimization completed.
    -- Stationary point found.
 Normal termination of Gaussian 16 at Wed Mar  6 08:17:37 2024.

 ----------------------------------------------------------------------
 #N Geom=AllCheck Guess=TCheck SCRF=Check GenChk RwB97XD/def2TZVPP Freq
 ----------------------------------------------------------------------

 Structure from the checkpoint file:  "ZPt.chk"
 ---
 ZPt
 ---
 Charge =  1 Multiplicity = 1

                         Standard orientation:
 ---------------------------------------------------------------------
 Center     Atomic      Atomic             Coordinates (Angstroms)
 Number     Number       Type             X           Y           Z
 ---------------------------------------------------------------------
      1         78           0       -1.003476    0.000000   -0.017466
      2          6           0        1.533447    1.184963   -0.231675
      3          6           0        1.533447   -1.184963   -0.231675
      4          6           0        2.877222    1.225108   -0.064949
      5          6           0        2.877222   -1.225108   -0.064949
      6          6           0        3.648435    0.000000    0.054212
      7          1           0        3.397494    2.171885   -0.031379
      8          1           0        3.397494   -2.171885   -0.031379
      9          8           0        4.873899    0.000000    0.231339
     10          7           0        0.881783    0.000000   -0.296609
     11          6           0        0.616789    2.347110   -0.488029
     12          1           0        0.530839    2.468935   -1.567670
     13          1           0        1.000441    3.277415   -0.071417
     14          6           0        0.616789   -2.347110   -0.488029
     15          1           0        0.530839   -2.468935   -1.567670
     16          1           0        1.000441   -3.277415   -0.071417
     17          7           0       -0.760791    2.077785    0.043883
     18          7           0       -0.760791   -2.077785    0.043883
     19          6           0       -1.762851    2.808564   -0.759315
     20          1           0       -2.748545    2.648596   -0.328882
     21          1           0       -1.542098    3.877876   -0.752594
     22          1           0       -1.747211    2.439372   -1.781264
     23          6           0       -0.832308    2.528147    1.453455
     24          1           0       -0.712103    3.612184    1.498196
     25          1           0       -1.797344    2.256306    1.873802
     26          1           0       -0.041323    2.053192    2.028405
     27          6           0       -1.762851   -2.808564   -0.759315
     28          1           0       -1.542098   -3.877876   -0.752594
     29          1           0       -2.748545   -2.648596   -0.328882
     30          1           0       -1.747211   -2.439372   -1.781264
     31          6           0       -0.832308   -2.528147    1.453455
     32          1           0       -1.797344   -2.256306    1.873802
     33          1           0       -0.712102   -3.612184    1.498196
     34          1           0       -0.041323   -2.053192    2.028405
 ---------------------------------------------------------------------

 SCF Done:  E(RwB97XD) =  -788.821871517     A.U. after    1 cycles

 The electronic state is 1-A.
 Alpha  occ. eigenvalues --  -19.20490 -14.54650 -14.54650 -14.51311 -10.36549
 Alpha  occ. eigenvalues --  -10.36547 -10.36507 -10.36227 -10.36226 -10.34341
 Alpha  occ. eigenvalues --  -10.34341 -10.34266 -10.34266 -10.29674 -10.29674
 Alpha  occ. eigenvalues --   -4.07322  -2.32187  -2.32017  -2.28335  -1.12395
 Alpha  occ. eigenvalues --   -1.11167  -1.09910  -1.08453  -0.94118  -0.89348
 Alpha  occ. eigenvalues --   -0.86965  -0.85498  -0.85442  -0.83315  -0.76446
 Alpha  occ. eigenvalues --   -0.75612  -0.74147  -0.69731  -0.65662  -0.63610
 Alpha  occ. eigenvalues --   -0.62755  -0.61734  -0.61442  -0.60519  -0.59885
 Alpha  occ. eigenvalues --   -0.59084  -0.56176  -0.54896  -0.53810  -0.52921
 Alpha  occ. eigenvalues --   -0.52845  -0.51965  -0.51016  -0.50744  -0.50354
 Alpha  occ. eigenvalues --   -0.49745  -0.49547  -0.49116  -0.48275  -0.47516
 Alpha  occ. eigenvalues --   -0.47425  -0.47097  -0.42341  -0.38778  -0.38168
 Alpha  occ. eigenvalues --   -0.37745  -0.36387  -0.34778  -0.33115  -0.29916
 Alpha virt. eigenvalues --   -0.02518   0.02573   0.03258   0.04825   0.07204
 Alpha virt. eigenvalues --    0.09458   0.09813   0.12272   0.12825   0.13798
 Alpha virt. eigenvalues --    0.13970   0.14166   0.14607   0.15007   0.15154

 Mulliken charges:
               1
     1  Pt   0.559209
     2  C    0.090891
     3  C    0.090891
     4  C   -0.268978
     5  C   -0.268978
     6  C    0.296441
     7  H    0.112227
     8  H    0.112227
     9  O   -0.519887
    10  N   -0.203943
    11  C   -0.070631
    12  H    0.131476
    13  H    0.125738
    14  C   -0.070631
    15  H    0.131476
    16  H    0.125738
    17  N   -0.052166
    18  N   -0.052166
    19  C   -0.175247
    20  H    0.116319
    21  H    0.126583
    22  H    0.118823
    23  C   -0.192742
    24  H    0.117380
    25  H    0.120893
    26  H    0.133522
    27  C   -0.175247
    28  H    0.126583
    29  H    0.116319
    30  H    0.118823
    31  C   -0.192742
    32  H    0.120893
    33  H    0.117380
    34  H    0.133522
 Sum of Mulliken charges =   1.00000

 Dipole moment (field-independent basis, Debye):
    X=            -16.2173    Y=             -0.0000    Z=             -0.2380  Tot=             16.2191
 Quadrupole moment (field-independent basis, Debye-Ang):
   XX=           -144.6542   YY=            -66.0178   ZZ=           -104.2699
   XY=             -0.0000   XZ=             -4.2627   YZ=             -0.0000

  Exact polarizability:     296.470       0.000     255.316       8.324       0.000     172.618
 Approx polarizability:     240.071       0.000     209.252       7.846       0.000     163.175

                      1                      2                      3
                      A                      A                      A
 Frequencies --     62.8117                73.5503                99.0089
 Red. masses --      2.9770                 4.1446                 4.4700
 Frc consts  --      0.0069                 0.0132                 0.0258
 IR Inten    --      0.7142                 3.3150                 6.8584

                      4                      5                      6
                      A                      A                      A
 Frequencies --    177.0606               191.8447               194.4756
 Red. masses --      3.8163                 3.5753                 2.6524
 Frc consts  --      0.0705                 0.0775                 0.0591
 IR Inten    --      1.1458                 3.4087                 2.9789

                      7                      8                      9
                      A                      A                      A
 Frequencies --    212.4392               213.1518               246.9827
 Red. masses --      3.3846                 4.5911                 2.9062
 Frc consts  --      0.0900                 0.1229                 0.1044
 IR Inten    --      3.9720                21.3014                 3.2717

                     10                     11                     12
                      A                      A                      A
 Frequencies --    263.5282               276.5450               284.8954
 Red. masses --      2.3638                 2.3059                 1.6913
 Frc consts  --      0.0967                 0.1039                 0.0809
 IR Inten    --      0.4886                 0.2168                 1.5993

                     13                     14                     15
                      A                      A                      A
 Frequencies --    290.7844               293.4980               296.0621
 Red. masses --      2.1743                 1.4504                 1.0526
 Frc consts  --      0.1083                 0.0736                 0.0544
 IR Inten    --      0.0789                 1.8741                 0.4374

                     16                     17                     18
                      A                      A                      A
 Frequencies --    301.0311               301.7354               366.1618
 Red. masses --      2.2553                 1.6785                 4.5736
 Frc consts  --      0.1204                 0.0900                 0.3613
 IR Inten    --      1.4974                 0.2838                 7.3820

                     19                     20                     21
                      A                      A                      A
 Frequencies --    410.1836               420.2356               461.1984
 Red. masses --      2.3248                 2.3231                 2.7395
 Frc consts  --      0.2305                 0.2417                 0.3433
 IR Inten    --      1.0009                 0.5640                 0.2359

                     22                     23                     24
                      A                      A                      A
 Frequencies --    499.3487               502.1245               540.8142
 Red. masses --      3.7873                 3.3200                 3.7503
 Frc consts  --      0.5564                 0.4932                 0.6463
 IR Inten    --     19.0461                 7.2676                 0.8711

                     25                     26                     27
                      A                      A                      A
 Frequencies --    545.3012               576.2318               619.5676
 Red. masses --      3.2230                 2.9218                 3.8004
 Frc consts  --      0.5647                 0.5716                 0.8595
 IR Inten    --      1.3258                20.1075                 3.3992

                     28                     29                     30
                      A                      A                      A
 Frequencies --    627.5462               693.4611               726.7901
 Red. masses --      6.3113                 5.6836                 2.9963
 Frc consts  --      1.4644                 1.6103                 0.9325
 IR Inten    --     36.3500                 0.0131                 1.7618

                     31                     32                     33
                      A                      A                      A
 Frequencies --    737.0124               863.2272               880.2160
 Red. masses --      2.9476                 1.4851                 2.3569
 Frc consts  --      0.9433                 0.6520                 1.0759
 IR Inten    --     33.1023                16.0054                64.7007

                     34                     35                     36
                      A                      A                      A
 Frequencies --    897.9977               899.6180               931.3218
 Red. masses --      3.0721                 2.4690                 2.8966
 Frc consts  --      1.4596                 1.1773                 1.4802
 IR Inten    --     18.3736                84.1098                66.3169

                     37                     38                     39
                      A                      A                      A
 Frequencies --    994.4441              1000.0451              1000.3317
 Red. masses --      2.2572                 2.1060                 2.7869
 Frc consts  --      1.3151                 1.2409                 1.6431
 IR Inten    --     15.5458                26.5617                 4.1013

                     40                     41                     42
                      A                      A                      A
 Frequencies --   1015.7045              1049.7951              1051.7342
 Red. masses --      2.5212                 1.7978                 1.6263
 Frc consts  --      1.5325                 1.1673                 1.0599
 IR Inten    --     77.6398                 8.2464                20.0185

                     43                     44                     45
                      A                      A                      A
 Frequencies --   1054.8242              1138.0043              1142.0355
 Red. masses --      2.9721                 4.9217                 1.2799
 Frc consts  --      1.9484                 3.7554                 0.9835
 IR Inten    --     17.7668                31.3833                 0.5385

                     46                     47                     48
                      A                      A                      A
 Frequencies --   1147.0108              1181.0482              1186.8558
 Red. masses --      1.2930                 1.5246                 1.4700
 Frc consts  --      1.0023                 1.2530                 1.2200
 IR Inten    --      9.7714                 0.1145                 3.9795

                     49                     50                     51
                      A                      A                      A
 Frequencies --   1216.6290              1219.5789              1233.2828
 Red. masses --      1.5155                 1.7957                 1.9188
 Frc consts  --      1.3217                 1.5736                 1.7195
 IR Inten    --      0.2451                 4.2431                10.5391

                     52                     53                     54
                      A                      A                      A
 Frequencies --   1238.9852              1265.1099              1282.0180
 Red. masses --      1.7267                 4.0830                 2.1603
 Frc consts  --      1.5617                 3.8502                 2.0920
 IR Inten    --     14.5781                 0.1839                 2.0179

                     55                     56                     57
                      A                      A                      A
 Frequencies --   1286.7073              1324.8578              1327.0411
 Red. masses --      2.0700                 1.4202                 1.5043
 Frc consts  --      2.0192                 1.4687                 1.5608
 IR Inten    --      4.5104                 2.6207                11.6934

                     58                     59                     60
                      A                      A                      A
 Frequencies --   1391.8221              1401.6993              1425.5667
 Red. masses --      1.4201                 1.4545                 3.8334
 Frc consts  --      1.6208                 1.6837                 4.5899
 IR Inten    --      1.5180                16.8067               121.7391

                     61                     62                     63
                      A                      A                      A
 Frequencies --   1459.8783              1460.0689              1477.5364
 Red. masses --      1.1468                 1.1481                 1.1464
 Frc consts  --      1.4400                 1.4420                 1.4745
 IR Inten    --      0.3502                 9.9538                25.2779

                     64                     65                     66
                      A                      A                      A
 Frequencies --   1479.2400              1482.8065              1483.6957
 Red. masses --      1.1229                 1.0435                 1.0458
 Frc consts  --      1.4477                 1.3519                 1.3564
 IR Inten    --     10.1445                 0.0753                 0.4409

                     67                     68                     69
                      A                      A                      A
 Frequencies --   1489.8671              1491.3739              1503.4470
 Red. masses --      1.1045                 1.1063                 1.0486
 Frc consts  --      1.4444                 1.4497                 1.3965
 IR Inten    --      6.9927                 3.6003                41.7746

                     70                     71                     72
                      A                      A                      A
 Frequencies --   1504.1474              1508.8412              1509.6758
 Red. masses --      1.0492                 1.0607                 1.0546
 Frc consts  --      1.3986                 1.4228                 1.4161
 IR Inten    --     27.6810                 1.1209                30.2599

                     73                     74                     75
                      A                      A                      A
 Frequencies --   1517.4559              1518.6494              1536.9111
 Red. masses --      1.0699                 1.0688                 7.3866
 Frc consts  --      1.4515                 1.4523                10.2799
 IR Inten    --     22.6130                32.0474               194.1464

                     76                     77                     78
                      A                      A                      A
 Frequencies --   1608.8637              1649.3922              1688.7156
 Red. masses --      7.1620                10.2893                 7.7735
 Frc consts  --     10.9225                16.4925                13.0612
 IR Inten    --      9.5998              1006.2572               801.4408

                     79                     80                     81
                      A                      A                      A
 Frequencies --   3057.5644              3057.5931              3060.3614
 Red. masses --      1.0385                 1.0384                 1.0381
 Frc consts  --      5.7201                 5.7198                 5.7282
 IR Inten    --      3.9039                25.5268                79.5938

                     82                     83                     84
                      A                      A                      A
 Frequencies --   3061.1430              3089.7613              3090.0306
 Red. masses --      1.0382                 1.0602                 1.0602
 Frc consts  --      5.7319                 5.9636                 5.9645
 IR Inten    --     15.1323                16.4871                 4.0491

                     85                     86                     87
                      A                      A                      A
 Frequencies --   3145.0521              3145.1783              3149.5542
 Red. masses --      1.1057                 1.1057                 1.1004
 Frc consts  --      6.4440                 6.4441                 6.4312
 IR Inten    --     15.8504                 2.8547                 3.5207

                     88                     89                     90
                      A                      A                      A
 Frequencies --   3149.5754              3150.7563              3150.8231
 Red. masses --      1.1004                 1.0986                 1.0986
 Frc consts  --      6.4313                 6.4260                 6.4259
 IR Inten    --      0.0187                37.6537                 2.3912

                     91                     92                     93
                      A                      A                      A
 Frequencies --   3179.8486              3179.9162              3184.0365
 Red. masses --      1.1068                 1.1068                 1.1065
 Frc consts  --      6.5938                 6.5942                 6.6094
 IR Inten    --      0.4798                14.5661                 0.0081

                     94                     95                     96
                      A                      A                      A
 Frequencies --   3184.0791              3226.0937              3226.8104
 Red. masses --      1.1065                 1.0925                 1.0929
 Frc consts  --      6.6095                 6.6993                 6.7044
 IR Inten    --     16.8017                 3.8151                 3.1412

 - Thermochemistry -
 -------------------
 Temperature   298.150 Kelvin.  Pressure   1.00000 Atm.
 Atom     1 has atomic number 78 and mass 194.96480

 Molecular mass:   403.10979 amu.
 Principal axes and moments of inertia in atomic units:
                           1         2         3
     Eigenvalues --  3274.602924578.437067092.54245
           X            1.00000  -0.00000  -0.00111
           Y            0.00000   1.00000  -0.00000
           Z            0.00111   0.00000   1.00000
 This molecule is an asymmetric top.
 Rotational symmetry number  1.
 Warning -- assumption of classical behavior for rotation
           may cause significant error
 Rotational temperatures (Kelvin)      0.02645     0.01892     0.01221
 Rotational constants (GHZ):           0.55113     0.39418     0.25446
 Zero-point vibrational energy     768072.2 (Joules/Mol)
                                  183.57365 (Kcal/Mol)
 Warning -- explicit consideration of  27 degrees of freedom as
           vibrations may cause significant error
 Vibrational temperatures:     90.37   105.82   142.45   254.75   276.02
          (Kelvin)            279.81   305.65   306.68   355.35   379.16
                              397.89   409.90   418.37   422.28   425.97
                              433.12   434.13   526.83   590.16   604.63
                              663.56   718.45   722.45   778.11   784.57
                              829.07   891.42   902.90   997.74  1045.69
                             1060.40  1241.99  1266.43  1292.02  1294.35
                             1339.96  1430.78  1438.84  1439.25  1461.37
                             1510.42  1513.21  1517.66  1637.33  1643.13
                             1650.29  1699.26  1707.62  1750.46  1754.70
                             1774.42  1782.62  1820.21  1844.54  1851.28
                             1906.17  1909.32  2002.52  2016.73  2051.07
                             2100.44  2100.71  2125.85  2128.30  2133.43
                             2134.71  2143.59  2145.75  2163.12  2164.13
                             2170.89  2172.09  2183.28  2185.00  2211.27
                             2314.80  2373.11  2429.69  4399.15  4399.19
                             4403.18  4404.30  4445.48  4445.86  4525.03
                             4525.21  4531.51  4531.54  4533.24  4533.33
                             4575.09  4575.19  4581.12  4581.18  4641.63
                             4642.66

 Zero-point correction=                           0.292543 (Hartree/Particle)
 Thermal correction to Energy=                    0.308142
 Thermal correction to Enthalpy=                  0.309086
 Thermal correction to Gibbs Free Energy=         0.250361
 Sum of electronic and zero-point Energies=           -788.529328
 Sum of electronic and thermal Energies=              -788.513729
 Sum of electronic and thermal Enthalpies=            -788.512785
 Sum of electronic and thermal Free Energies=         -788.571510

                     E (Thermal)             CV                S
                      KCal/Mol        Cal/Mol-Kelvin    Cal/Mol-Kelvin
 Total                  193.362             61.647            123.597
 Electronic               0.000              0.000              0.000
 Translational            0.889              2.981             43.873
 Rotational               0.889              2.981             33.030
 Vibrational            191.585             55.686             46.694
 Vibration     1          0.597              1.972              4.367
 Vibration     2          0.599              1.966              4.056
 Vibration     3          0.604              1.950              3.474
 Vibration     4          0.628              1.871              2.359
 Vibration     5          0.634              1.851              2.210
 Vibration     6          0.635              1.848              2.185
 Vibration     7          0.643              1.822              2.023
 Vibration     8          0.644              1.821              2.017
 Vibration     9          0.661              1.768              1.752
 Vibration    10          0.670              1.740              1.638
 Vibration    11          0.678              1.717              1.555
 Vibration    12          0.683              1.702              1.504
 Vibration    13          0.687              1.691              1.469
 Vibration    14          0.688              1.686              1.454
 Vibration    15          0.690              1.681              1.439
 Vibration    16          0.693              1.672              1.411
 Vibration    17          0.694              1.670              1.407
 Vibration    18          0.739              1.542              1.096
 Vibration    19          0.774              1.448              0.926
 Vibration    20          0.783              1.426              0.891
 Vibration    21          0.819              1.336              0.763
 Vibration    22          0.855              1.251              0.660
 Vibration    23          0.857              1.245              0.653
 Vibration    24          0.896              1.160              0.564
 Vibration    25          0.900              1.150              0.554
 Vibration    26          0.933              1.083              0.492
 Vibration    27          0.980              0.991              0.417

 Optimization completed.
    -- Stationary point found.
 Normal termination of Gaussian 16 at Wed Mar  6 16:20:29 2024.
