 Gaussian 16, Revision C.01,
 Gaussian 16:  ES64L-G16RevC.01  3-Jul-2019

 ----------------------------------------------------------
 # wb97xd def2TZVPP SCRF=(solvent=dichloromethane) opt freq
 ----------------------------------------------------------

 -----
 ZPtMe
 -----
 Symbolic Z-matrix:
 Charge =  0 Multiplicity = 1

 SCF Done:  E(RwB97XD) =  -828.910133626     A.U. after   19 cycles
 SCF Done:  E(RwB97XD) =  -828.910716986     A.U. after   13 cycles
 SCF Done:  E(RwB97XD) =  -828.908771003     A.U. after   16 cycles
 SCF Done:  E(RwB97XD) =  -828.910947189     A.U. after   11 cycles
 SCF Done:  E(RwB97XD) =  -828.910996921     A.U. after   12 cycles
 SCF Done:  E(RwB97XD) =  -828.911047039     A.U. after   13 cycles
 SCF Done:  E(RwB97XD) =  -828.911108395     A.U. after   13 cycles
 SCF Done:  E(RwB97XD) =  -828.911114633     A.U. after   12 cycles
 SCF Done:  E(RwB97XD) =  -828.911114902     A.U. after   11 cycles
 SCF Done:  E(RwB97XD) =  -828.911115445     A.U. after    9 cycles
 SCF Done:  E(RwB97XD) =  -828.911115659     A.U. after    8 cycles
 Optimization completed.
    -- Stationary point found.
 Normal termination of Gaussian 16 at Tue Mar 12 00:18:02 2024.

 ----------------------------------------------------------------------
 #N Geom=AllCheck Guess=TCheck SCRF=Check GenChk RwB97XD/def2TZVPP Freq
 ----------------------------------------------------------------------

 Structure from the checkpoint file:  "ZPtMe.chk"
 -----
 ZPtMe
 -----
 Charge =  0 Multiplicity = 1

                         Standard orientation:
 ---------------------------------------------------------------------
 Center     Atomic      Atomic             Coordinates (Angstroms)
 Number     Number       Type             X           Y           Z
 ---------------------------------------------------------------------
      1         78           0        0.920579   -0.000001   -0.072909
      2          6           0       -1.721239   -1.169673   -0.244797
      3          6           0       -1.721238    1.169671   -0.244810
      4          6           0       -3.065953   -1.222127   -0.029555
      5          6           0       -3.065952    1.222128   -0.029568
      6          6           0       -3.832942    0.000002    0.096508
      7          1           0       -3.582994   -2.169242    0.046950
      8          1           0       -3.582993    2.169244    0.046927
      9          8           0       -5.064581    0.000004    0.299784
     10          7           0       -1.075527   -0.000002   -0.346376
     11          6           0       -0.792358   -2.332741   -0.492778
     12          1           0       -0.701317   -2.455662   -1.572259
     13          1           0       -1.175881   -3.267003   -0.080382
     14          6           0       -0.792353    2.332735   -0.492798
     15          1           0       -0.701298    2.455640   -1.572280
     16          1           0       -1.175879    3.267004   -0.080420
     17          7           0        0.595228   -2.082255    0.036875
     18          7           0        0.595225    2.082252    0.036876
     19          6           0        2.967330    0.000018    0.259665
     20          1           0        3.520834    0.000138   -0.688048
     21          1           0        3.312939    0.876448    0.821247
     22          1           0        3.313003   -0.876503    0.821065
     23          6           0        1.551722   -2.917179   -0.713376
     24          1           0        2.545507   -2.778302   -0.296978
     25          1           0        1.272895   -3.971784   -0.640947
     26          1           0        1.556699   -2.611524   -1.756227
     27          6           0        0.633496   -2.472558    1.464315
     28          1           0        0.437058   -3.543696    1.560888
     29          1           0        1.613316   -2.245346    1.874598
     30          1           0       -0.122297   -1.917252    2.014403
     31          6           0        1.551733    2.917176   -0.713356
     32          1           0        1.272912    3.971782   -0.640923
     33          1           0        2.545511    2.778287   -0.296946
     34          1           0        1.556721    2.611529   -1.756210
     35          6           0        0.633468    2.472553    1.464317
     36          1           0        1.613283    2.245346    1.874615
     37          1           0        0.437023    3.543689    1.560888
     38          1           0       -0.122331    1.917242    2.014393
 ---------------------------------------------------------------------

 SCF Done:  E(RwB97XD) =  -828.911115659     A.U. after    1 cycles

 The electronic state is 1-A.
 Alpha  occ. eigenvalues --  -19.17858 -14.51575 -14.51575 -14.44690 -10.33903
 Alpha  occ. eigenvalues --  -10.33632 -10.33632 -10.33289 -10.33286 -10.31912
 Alpha  occ. eigenvalues --  -10.31911 -10.31883 -10.31883 -10.27064 -10.27064
 Alpha  occ. eigenvalues --  -10.23946  -4.01213  -2.26032  -2.25403  -2.22736
 Alpha  occ. eigenvalues --   -1.09008  -1.08088  -1.06983  -1.05008  -0.90842
 Alpha  occ. eigenvalues --   -0.86178  -0.84078  -0.82967  -0.82922  -0.80501
 Alpha  occ. eigenvalues --   -0.74698  -0.73783  -0.72859  -0.71054  -0.66688
 Alpha  occ. eigenvalues --   -0.62292  -0.60747  -0.59667  -0.59160  -0.58325
 Alpha  occ. eigenvalues --   -0.57801  -0.57115  -0.56466  -0.52929  -0.52142
 Alpha  occ. eigenvalues --   -0.51309  -0.50287  -0.50040  -0.49080  -0.48304
 Alpha  occ. eigenvalues --   -0.48077  -0.48026  -0.47314  -0.47083  -0.46688
 Alpha  occ. eigenvalues --   -0.45447  -0.45196  -0.45009  -0.44528  -0.44498
 Alpha  occ. eigenvalues --   -0.43254  -0.39037  -0.33960  -0.33568  -0.32670
 Alpha  occ. eigenvalues --   -0.32567  -0.32044  -0.30736  -0.29917  -0.26634
 Alpha virt. eigenvalues --    0.04795   0.05590   0.07559   0.09512   0.09800
 Alpha virt. eigenvalues --    0.11680   0.12683   0.13876   0.15263   0.15413
 Alpha virt. eigenvalues --    0.15658   0.16081   0.16095   0.16302   0.16855

 Mulliken charges:
               1
     1  Pt   0.276155
     2  C    0.117938
     3  C    0.117938
     4  C   -0.296470
     5  C   -0.296468
     6  C    0.294012
     7  H    0.100608
     8  H    0.100608
     9  O   -0.569356
    10  N   -0.284957
    11  C   -0.080856
    12  H    0.123027
    13  H    0.116099
    14  C   -0.080862
    15  H    0.123028
    16  H    0.116099
    17  N   -0.052197
    18  N   -0.052195
    19  C   -0.613928
    20  H    0.092781
    21  H    0.072114
    22  H    0.072113
    23  C   -0.186449
    24  H    0.113611
    25  H    0.116833
    26  H    0.113009
    27  C   -0.211009
    28  H    0.107029
    29  H    0.121661
    30  H    0.127699
    31  C   -0.186449
    32  H    0.116833
    33  H    0.113611
    34  H    0.113010
    35  C   -0.211010
    36  H    0.121661
    37  H    0.107029
    38  H    0.127699
 Sum of Mulliken charges =  -0.00000

 Dipole moment (field-independent basis, Debye):
    X=             11.0598    Y=             -0.0000    Z=             -0.6043  Tot=             11.0763
 Quadrupole moment (field-independent basis, Debye-Ang):
   XX=           -191.4973   YY=            -86.0318   ZZ=           -117.6569
   XY=              0.0000   XZ=              3.8744   YZ=             -0.0000

  Exact polarizability:     343.506       0.000     276.854      -9.271      -0.000     196.495
 Approx polarizability:     269.628       0.000     229.331      -8.738      -0.000     188.467

                      1                      2                      3
                      A                      A                      A
 Frequencies --     48.1048                63.4835                75.5919
 Red. masses --      1.7310                 4.9054                 3.5706
 Frc consts  --      0.0024                 0.0116                 0.0120
 IR Inten    --      0.6201                 6.4179                 9.0843

                      4                      5                      6
                      A                      A                      A
 Frequencies --     82.4231               141.5763               174.5630
 Red. masses --      1.5507                 3.2170                 4.3910
 Frc consts  --      0.0062                 0.0380                 0.0788
 IR Inten    --      0.5828                 4.1526                 0.6765

                      7                      8                      9
                      A                      A                      A
 Frequencies --    194.7322               203.9995               210.8467
 Red. masses --      3.8165                 2.9677                 2.8764
 Frc consts  --      0.0853                 0.0728                 0.0753
 IR Inten    --      1.0980                 3.2764                 0.1850

                     10                     11                     12
                      A                      A                      A
 Frequencies --    224.0700               241.3020               254.9054
 Red. masses --      2.8668                 4.0002                 3.1350
 Frc consts  --      0.0848                 0.1372                 0.1200
 IR Inten    --      0.1744                 3.8570                 0.5372

                     13                     14                     15
                      A                      A                      A
 Frequencies --    267.6290               269.1376               278.8976
 Red. masses --      2.5627                 2.2178                 1.9740
 Frc consts  --      0.1081                 0.0946                 0.0905
 IR Inten    --      0.3470                 1.5635                 0.6866

                     16                     17                     18
                      A                      A                      A
 Frequencies --    284.3518               285.4207               292.7885
 Red. masses --      1.2019                 1.7549                 4.1408
 Frc consts  --      0.0573                 0.0842                 0.2091
 IR Inten    --      1.8690                 1.5067                 1.2553

                     19                     20                     21
                      A                      A                      A
 Frequencies --    313.5859               317.2583               354.6719
 Red. masses --      1.1332                 1.2025                 4.1874
 Frc consts  --      0.0657                 0.0713                 0.3103
 IR Inten    --      2.1463                 1.2945                24.1895

                     22                     23                     24
                      A                      A                      A
 Frequencies --    409.5620               414.0790               460.3562
 Red. masses --      2.2604                 2.2232                 2.8001
 Frc consts  --      0.2234                 0.2246                 0.3496
 IR Inten    --      1.6611                 0.2275                 4.4732

                     25                     26                     27
                      A                      A                      A
 Frequencies --    495.7943               497.6817               529.2145
 Red. masses --      3.0778                 3.1760                 2.8815
 Frc consts  --      0.4458                 0.4635                 0.4755
 IR Inten    --     28.8313                14.8412                 2.1930

                     28                     29                     30
                      A                      A                      A
 Frequencies --    543.0006               548.7284               566.8071
 Red. masses --      3.5448                 4.0452                 3.1216
 Frc consts  --      0.6158                 0.7176                 0.5909
 IR Inten    --      1.4747                33.8447                16.1012

                     31                     32                     33
                      A                      A                      A
 Frequencies --    603.5932               633.4001               694.2756
 Red. masses --      6.8395                 3.3972                 5.6721
 Frc consts  --      1.4681                 0.8030                 1.6109
 IR Inten    --      8.9031                 2.1171                 0.5685

                     34                     35                     36
                      A                      A                      A
 Frequencies --    728.6493               749.1006               767.9140
 Red. masses --      2.9762                 1.7037                 1.8064
 Frc consts  --      0.9310                 0.5633                 0.6276
 IR Inten    --      2.4493                15.4005                14.6224

                     37                     38                     39
                      A                      A                      A
 Frequencies --    821.3995               853.8587               869.9413
 Red. masses --      1.2509                 1.4177                 2.4550
 Frc consts  --      0.4972                 0.6090                 1.0946
 IR Inten    --      0.0398                11.8781                67.1349

                     40                     41                     42
                      A                      A                      A
 Frequencies --    892.5091               892.8282               932.4723
 Red. masses --      3.2748                 2.7725                 2.9365
 Frc consts  --      1.5370                 1.3021                 1.5043
 IR Inten    --     23.2981                75.4491                62.2483

                     43                     44                     45
                      A                      A                      A
 Frequencies --    988.3814               991.7916               996.5137
 Red. masses --      2.3838                 2.2479                 2.6872
 Frc consts  --      1.3720                 1.3028                 1.5723
 IR Inten    --      0.4011               100.0857                25.9515

                     46                     47                     48
                      A                      A                      A
 Frequencies --   1013.4506              1049.6068              1052.2927
 Red. masses --      2.4147                 2.0752                 1.6438
 Frc consts  --      1.4613                 1.3470                 1.0724
 IR Inten    --     25.8893                11.7305                20.7815

                     49                     50                     51
                      A                      A                      A
 Frequencies --   1053.5612              1105.7723              1132.6145
 Red. masses --      2.3808                 4.7506                 1.2641
 Frc consts  --      1.5570                 3.4224                 0.9554
 IR Inten    --      5.1634               136.0023                 0.7365

                     52                     53                     54
                      A                      A                      A
 Frequencies --   1135.3362              1180.2667              1183.2455
 Red. masses --      1.2646                 1.4914                 1.4704
 Frc consts  --      0.9604                 1.2241                 1.2129
 IR Inten    --      3.4428                 0.0746                10.1678

                     55                     56                     57
                      A                      A                      A
 Frequencies --   1210.5452              1210.9902              1227.4258
 Red. masses --      1.5356                 1.8722                 1.9165
 Frc consts  --      1.3258                 1.6177                 1.7012
 IR Inten    --      0.0001                10.2516                 7.7839

                     58                     59                     60
                      A                      A                      A
 Frequencies --   1231.8898              1260.2481              1262.8725
 Red. masses --      1.6976                 6.1421                 1.2100
 Frc consts  --      1.5178                 5.7475                 1.1369
 IR Inten    --     14.4771                 0.2668                 5.2916

                     61                     62                     63
                      A                      A                      A
 Frequencies --   1276.8126              1281.4628              1320.6269
 Red. masses --      1.9995                 2.0074                 1.3999
 Frc consts  --      1.9205                 1.9422                 1.4385
 IR Inten    --      2.7095                 0.3453                 1.6840

                     64                     65                     66
                      A                      A                      A
 Frequencies --   1322.8401              1387.5857              1396.7865
 Red. masses --      1.4857                 1.4040                 1.4305
 Frc consts  --      1.5317                 1.5927                 1.6443
 IR Inten    --     12.2180                 2.0502                12.7424

                     67                     68                     69
                      A                      A                      A
 Frequencies --   1434.9925              1449.9399              1450.7128
 Red. masses --      4.0960                 1.1441                 1.1523
 Frc consts  --      4.9694                 1.4171                 1.4288
 IR Inten    --    148.5091                 0.7522                 6.4561

                     70                     71                     72
                      A                      A                      A
 Frequencies --   1461.0164              1468.6096              1473.6443
 Red. masses --      1.0768                 1.1065                 1.1391
 Frc consts  --      1.3543                 1.4061                 1.4574
 IR Inten    --      4.3654                 3.1497                 5.0972

                     73                     74                     75
                      A                      A                      A
 Frequencies --   1476.2587              1484.5807              1487.3697
 Red. masses --      1.0849                 1.0819                 1.0478
 Frc consts  --      1.3931                 1.4049                 1.3657
 IR Inten    --      0.5936                 1.2089                 0.9137

                     76                     77                     78
                      A                      A                      A
 Frequencies --   1487.6293              1490.5927              1499.3681
 Red. masses --      1.0541                 1.1040                 1.0712
 Frc consts  --      1.3744                 1.4452                 1.4188
 IR Inten    --      1.2382                 0.9639                 5.1249

                     79                     80                     81
                      A                      A                      A
 Frequencies --   1500.2878              1504.4307              1507.0906
 Red. masses --      1.0682                 1.0488                 1.0499
 Frc consts  --      1.4166                 1.3986                 1.4050
 IR Inten    --     34.7195                13.2547                35.3663

                     82                     83                     84
                      A                      A                      A
 Frequencies --   1509.3867              1509.9987              1553.8372
 Red. masses --      1.0456                 1.0449                 7.9374
 Frc consts  --      1.4036                 1.4037                11.2911
 IR Inten    --     41.8759                24.6242               142.9711

                     85                     86                     87
                      A                      A                      A
 Frequencies --   1581.0571              1608.0358              1673.2709
 Red. masses --      7.0835                 9.4000                 7.6737
 Frc consts  --     10.4326                14.3208                12.6586
 IR Inten    --     80.3210               991.6869               880.9490

                     88                     89                     90
                      A                      A                      A
 Frequencies --   2982.2570              3042.8911              3043.5621
 Red. masses --      1.0334                 1.0963                 1.0454
 Frc consts  --      5.4151                 5.9807                 5.7054
 IR Inten    --    147.4179                86.6828                 6.6924

                     91                     92                     93
                      A                      A                      A
 Frequencies --   3043.6922              3045.2487              3045.5688
 Red. masses --      1.0456                 1.0503                 1.0902
 Frc consts  --      5.7070                 5.7386                 5.9578
 IR Inten    --     19.6585               288.3116                22.7364

                     94                     95                     96
                      A                      A                      A
 Frequencies --   3046.4448              3076.4871              3076.9278
 Red. masses --      1.0437                 1.0596                 1.0595
 Frc consts  --      5.7069                 5.9089                 5.9102
 IR Inten    --      9.1046                52.3679                 9.0232

                     97                     98                     99
                      A                      A                      A
 Frequencies --   3128.7438              3128.9502              3141.0514
 Red. masses --      1.1066                 1.1065                 1.0934
 Frc consts  --      6.3822                 6.3827                 6.3558
 IR Inten    --     15.2410                 6.8579                24.6767

                    100                    101                    102
                      A                      A                      A
 Frequencies --   3141.0688              3144.4043              3144.5596
 Red. masses --      1.0934                 1.0924                 1.0924
 Frc consts  --      6.3562                 6.3639                 6.3645
 IR Inten    --      2.9840                17.7584                13.3101

                    103                    104                    105
                      A                      A                      A
 Frequencies --   3180.0115              3180.0341              3182.4968
 Red. masses --      1.1063                 1.1063                 1.1062
 Frc consts  --      6.5915                 6.5916                 6.6011
 IR Inten    --     10.7203                 0.2708                 2.4010

                    106                    107                    108
                      A                      A                      A
 Frequencies --   3182.5569              3209.4892              3210.4931
 Red. masses --      1.1062                 1.0922                 1.0923
 Frc consts  --      6.6014                 6.6286                 6.6334
 IR Inten    --     28.0641                15.7876                14.7787

 - Thermochemistry -
 -------------------
 Temperature   298.150 Kelvin.  Pressure   1.00000 Atm.
 Atom     1 has atomic number 78 and mass 194.96480

 Molecular mass:   418.13326 amu.
 Principal axes and moments of inertia in atomic units:
                           1         2         3
     Eigenvalues --  3323.068825224.305887760.35795
           X            0.99999   0.00000   0.00454
           Y           -0.00000   1.00000   0.00000
           Z           -0.00454  -0.00000   0.99999
 This molecule is an asymmetric top.
 Rotational symmetry number  1.
 Warning -- assumption of classical behavior for rotation
           may cause significant error
 Rotational temperatures (Kelvin)      0.02606     0.01658     0.01116
 Rotational constants (GHZ):           0.54309     0.34545     0.23256
 Zero-point vibrational energy     859794.9 (Joules/Mol)
                                  205.49590 (Kcal/Mol)
 Warning -- explicit consideration of  31 degrees of freedom as
           vibrations may cause significant error
 Vibrational temperatures:     69.21    91.34   108.76   118.59   203.70
          (Kelvin)            251.16   280.18   293.51   303.36   322.39
                              347.18   366.75   385.06   387.23   401.27
                              409.12   410.66   421.26   451.18   456.46
                              510.29   589.27   595.77   662.35   713.34
                              716.05   761.42   781.26   789.50   815.51
                              868.44   911.32   998.91  1048.36  1077.79
                             1104.86  1181.81  1228.51  1251.65  1284.12
                             1284.58  1341.62  1422.06  1426.97  1433.76
                             1458.13  1510.15  1514.01  1515.84  1590.96
                             1629.58  1633.50  1698.14  1702.43  1741.70
                             1742.34  1765.99  1772.41  1813.22  1816.99
                             1837.05  1843.74  1900.09  1903.27  1996.43
                             2009.66  2064.63  2086.14  2087.25  2102.08
                             2113.00  2120.25  2124.01  2135.98  2139.99
                             2140.37  2144.63  2157.26  2158.58  2164.54
                             2168.37  2171.67  2172.55  2235.63  2274.79
                             2313.60  2407.46  4290.80  4378.04  4379.01
                             4379.19  4381.43  4381.89  4383.15  4426.38
                             4427.01  4501.56  4501.86  4519.27  4519.30
                             4524.10  4524.32  4575.33  4575.36  4578.90
                             4578.99  4617.74  4619.18

 Zero-point correction=                           0.327479 (Hartree/Particle)
 Thermal correction to Energy=                    0.345496
 Thermal correction to Enthalpy=                  0.346440
 Thermal correction to Gibbs Free Energy=         0.282434
 Sum of electronic and zero-point Energies=           -828.583637
 Sum of electronic and thermal Energies=              -828.565620
 Sum of electronic and thermal Enthalpies=            -828.564676
 Sum of electronic and thermal Free Energies=         -828.628682

                     E (Thermal)             CV                S
                      KCal/Mol        Cal/Mol-Kelvin    Cal/Mol-Kelvin
 Total                  216.802             70.351            134.712
 Electronic               0.000              0.000              0.000
 Translational            0.889              2.981             43.982
 Rotational               0.889              2.981             33.265
 Vibrational            215.025             64.389             57.464
 Vibration     1          0.595              1.978              4.894
 Vibration     2          0.597              1.972              4.346
 Vibration     3          0.599              1.965              4.002
 Vibration     4          0.600              1.961              3.832
 Vibration     5          0.615              1.912              2.782
 Vibration     6          0.627              1.874              2.386
 Vibration     7          0.635              1.847              2.182
 Vibration     8          0.640              1.834              2.097
 Vibration     9          0.643              1.824              2.036
 Vibration    10          0.649              1.804              1.926
 Vibration    11          0.658              1.777              1.793
 Vibration    12          0.665              1.755              1.696
 Vibration    13          0.673              1.733              1.611
 Vibration    14          0.674              1.730              1.602
 Vibration    15          0.679              1.713              1.540
 Vibration    16          0.683              1.703              1.507
 Vibration    17          0.683              1.701              1.501
 Vibration    18          0.688              1.687              1.458
 Vibration    19          0.701              1.648              1.343
 Vibration    20          0.704              1.641              1.324
 Vibration    21          0.731              1.566              1.145
 Vibration    22          0.774              1.449              0.928
 Vibration    23          0.778              1.440              0.912
 Vibration    24          0.818              1.338              0.765
 Vibration    25          0.851              1.259              0.669
 Vibration    26          0.853              1.255              0.664
 Vibration    27          0.884              1.185              0.589
 Vibration    28          0.898              1.155              0.559
 Vibration    29          0.904              1.142              0.547
 Vibration    30          0.923              1.103              0.510
 Vibration    31          0.962              1.024              0.444

 Optimization completed.
    -- Stationary point found.
 Normal termination of Gaussian 16 at Tue Mar 12 14:09:37 2024.
