 Gaussian 16, Revision C.01,
 Gaussian 16:  ES64L-G16RevC.01  3-Jul-2019

 ----------------------------------------------------------
 # wb97xd def2TZVPP SCRF=(solvent=dichloromethane) opt freq
 ----------------------------------------------------------

 -------
 ZPtMeMe
 -------
 Symbolic Z-matrix:
 Charge =  1 Multiplicity = 1

 SCF Done:  E(RwB97XD) =  -868.618682009     A.U. after   19 cycles
 SCF Done:  E(RwB97XD) =  -868.630012193     A.U. after   14 cycles
 SCF Done:  E(RwB97XD) =  -868.631768197     A.U. after   14 cycles
 SCF Done:  E(RwB97XD) =  -868.632020695     A.U. after   13 cycles
 SCF Done:  E(RwB97XD) =  -868.632075030     A.U. after   13 cycles
 SCF Done:  E(RwB97XD) =  -868.632138729     A.U. after   11 cycles
 SCF Done:  E(RwB97XD) =  -868.632192986     A.U. after   12 cycles
 SCF Done:  E(RwB97XD) =  -868.632218141     A.U. after   12 cycles
 SCF Done:  E(RwB97XD) =  -868.632250506     A.U. after   11 cycles
 SCF Done:  E(RwB97XD) =  -868.632245624     A.U. after   11 cycles
 SCF Done:  E(RwB97XD) =  -868.632358675     A.U. after    9 cycles
 SCF Done:  E(RwB97XD) =  -868.632350977     A.U. after   10 cycles
 SCF Done:  E(RwB97XD) =  -868.632350771     A.U. after   10 cycles
 SCF Done:  E(RwB97XD) =  -868.632358491     A.U. after   10 cycles
 SCF Done:  E(RwB97XD) =  -868.632348959     A.U. after   11 cycles
 SCF Done:  E(RwB97XD) =  -868.632358892     A.U. after   11 cycles
 SCF Done:  E(RwB97XD) =  -868.632359395     A.U. after    9 cycles
 SCF Done:  E(RwB97XD) =  -868.632358581     A.U. after    8 cycles
 SCF Done:  E(RwB97XD) =  -868.632358335     A.U. after    7 cycles
 Optimization completed.
    -- Stationary point found.
 Normal termination of Gaussian 16 at Fri May 24 13:11:06 2024.

 ----------------------------------------------------------------------
 #N Geom=AllCheck Guess=TCheck SCRF=Check GenChk RwB97XD/def2TZVPP Freq
 ----------------------------------------------------------------------

 Structure from the checkpoint file:  "ZPtMeMe.chk"
 -------
 ZPtMeMe
 -------
 Charge =  1 Multiplicity = 1

                         Standard orientation:
 ---------------------------------------------------------------------
 Center     Atomic      Atomic             Coordinates (Angstroms)
 Number     Number       Type             X           Y           Z
 ---------------------------------------------------------------------
      1         78           0       -0.856306    0.001913    0.025216
      2          6           0        1.780241    1.174304   -0.265478
      3          6           0        1.776572   -1.179622   -0.260072
      4          6           0        3.120465    1.224229   -0.068359
      5          6           0        3.116700   -1.233088   -0.063222
      6          6           0        3.890166   -0.005433    0.038846
      7          1           0        3.640123    2.168873    0.009100
      8          1           0        3.633307   -2.179106    0.017790
      9          8           0        5.116104   -0.006932    0.215616
     10          7           0        1.130781   -0.001956   -0.372291
     11          6           0        0.845917    2.336052   -0.472299
     12          1           0        0.692131    2.460364   -1.544031
     13          1           0        1.246809    3.267964   -0.076664
     14          6           0        0.838663   -2.339352   -0.461529
     15          1           0        0.687254   -2.471330   -1.532781
     16          1           0        1.235200   -3.270068   -0.058872
     17          7           0       -0.516511    2.091693    0.136695
     18          7           0       -0.524722   -2.086659    0.142715
     19          6           0       -2.830368    0.009640    0.649059
     20          1           0       -2.827463    0.047221    1.742731
     21          1           0       -3.384372    0.872544    0.279370
     22          1           0       -3.371844   -0.884936    0.341600
     23          6           0       -1.486070    3.011504   -0.496471
     24          1           0       -2.468280    2.857222   -0.061046
     25          1           0       -1.172687    4.040711   -0.319575
     26          1           0       -1.523466    2.836386   -1.566424
     27          6           0       -0.466758    2.400377    1.589737
     28          1           0       -0.156543    3.435115    1.732505
     29          1           0       -1.452702    2.254176    2.021731
     30          1           0        0.250384    1.744732    2.083004
     31          6           0       -1.496909   -2.997802   -0.499161
     32          1           0       -1.184708   -4.029485   -0.335211
     33          1           0       -2.478071   -2.847999   -0.059613
     34          1           0       -1.536508   -2.806922   -1.566424
     35          6           0       -0.482906   -2.397238    1.595819
     36          1           0       -1.466172   -2.231840    2.026943
     37          1           0       -0.193767   -3.438255    1.737230
     38          1           0        0.247249   -1.756878    2.089571
     39          6           0       -1.606192   -0.021881   -1.865803
     40          1           0       -2.117097    0.916412   -2.049317
     41          1           0       -0.751094   -0.147123   -2.525098
     42          1           0       -2.308580   -0.843189   -1.954488
 ---------------------------------------------------------------------

 SCF Done:  E(RwB97XD) =  -868.632358335     A.U. after    1 cycles

 The electronic state is 1-A.
 Alpha  occ. eigenvalues --  -19.20431 -14.56390 -14.56348 -14.48075 -10.36653
 Alpha  occ. eigenvalues --  -10.36633 -10.36430 -10.36156 -10.36151 -10.35228
 Alpha  occ. eigenvalues --  -10.35226 -10.34852 -10.34848 -10.34277 -10.29555
 Alpha  occ. eigenvalues --  -10.29554 -10.29226  -4.13427  -2.37246  -2.36702
 Alpha  occ. eigenvalues --   -2.36188  -1.12323  -1.11254  -1.10829  -1.08306
 Alpha  occ. eigenvalues --   -0.93947  -0.88861  -0.87289  -0.86351  -0.86324
 Alpha  occ. eigenvalues --   -0.83505  -0.83344  -0.79621  -0.77228  -0.75892
 Alpha  occ. eigenvalues --   -0.74143  -0.69718  -0.65938  -0.64013  -0.63108
 Alpha  occ. eigenvalues --   -0.62762  -0.61860  -0.61427  -0.60220  -0.59661
 Alpha  occ. eigenvalues --   -0.57100  -0.56065  -0.55492  -0.54635  -0.53479
 Alpha  occ. eigenvalues --   -0.53414  -0.52647  -0.52413  -0.51984  -0.51633
 Alpha  occ. eigenvalues --   -0.51353  -0.51294  -0.50365  -0.50069  -0.49805
 Alpha  occ. eigenvalues --   -0.49780  -0.49122  -0.48298  -0.47354  -0.47323
 Alpha  occ. eigenvalues --   -0.46294  -0.43975  -0.42308  -0.40715  -0.39761
 Alpha  occ. eigenvalues --   -0.38168  -0.36588  -0.33033  -0.30450
 Alpha virt. eigenvalues --   -0.04569  -0.00275   0.03255   0.03588   0.07421
 Alpha virt. eigenvalues --    0.10011   0.10380   0.10754   0.11579   0.12019
 Alpha virt. eigenvalues --    0.13253   0.13405   0.13682   0.14511   0.14695

 Mulliken charges:
               1
     1  Pt   0.803443
     2  C    0.092304
     3  C    0.096808
     4  C   -0.247653
     5  C   -0.248081
     6  C    0.291270
     7  H    0.109479
     8  H    0.109532
     9  O   -0.521186
    10  N   -0.343593
    11  C   -0.066905
    12  H    0.140190
    13  H    0.133189
    14  C   -0.072788
    15  H    0.141815
    16  H    0.133690
    17  N   -0.017560
    18  N   -0.017211
    19  C   -0.585893
    20  H    0.111522
    21  H    0.115227
    22  H    0.112715
    23  C   -0.201897
    24  H    0.129175
    25  H    0.132408
    26  H    0.117449
    27  C   -0.204272
    28  H    0.125908
    29  H    0.133807
    30  H    0.134071
    31  C   -0.203386
    32  H    0.132474
    33  H    0.129108
    34  H    0.118281
    35  C   -0.206117
    36  H    0.133643
    37  H    0.125761
    38  H    0.134382
    39  C   -0.410760
    40  H    0.133204
    41  H    0.148493
    42  H    0.127956
 Sum of Mulliken charges =   1.00000

 Dipole moment (field-independent basis, Debye):
    X=            -13.7430    Y=              0.0150    Z=              0.0488  Tot=             13.7431
 Quadrupole moment (field-independent basis, Debye-Ang):
   XX=           -173.2035   YY=            -75.6452   ZZ=           -112.8127
   XY=              0.1573   XZ=             -1.2341   YZ=             -0.0143

  Exact polarizability:     359.926      -0.109     287.905       5.500       0.133     208.429
 Approx polarizability:     286.869      -0.017     242.937       7.719       0.143     204.139

                      1                      2                      3
                      A                      A                      A
 Frequencies --     79.4547                82.6604               108.8949
 Red. masses --      1.3084                 4.9125                 2.1818
 Frc consts  --      0.0049                 0.0198                 0.0152
 IR Inten    --      0.6289                 7.1900                 0.6535

                      4                      5                      6
                      A                      A                      A
 Frequencies --    119.0956               147.3146               154.1748
 Red. masses --      3.0733                 1.2669                 3.4059
 Frc consts  --      0.0257                 0.0162                 0.0477
 IR Inten    --      0.7889                 0.4387                 6.0434

                      7                      8                      9
                      A                      A                      A
 Frequencies --    181.8210               187.6955               211.2758
 Red. masses --      3.2936                 4.9154                 3.4195
 Frc consts  --      0.0642                 0.1020                 0.0899
 IR Inten    --      0.6156                 2.0965                 2.6346

                     10                     11                     12
                      A                      A                      A
 Frequencies --    215.1934               228.6226               231.9514
 Red. masses --      2.0730                 3.0671                 3.0104
 Frc consts  --      0.0566                 0.0945                 0.0954
 IR Inten    --      0.5911                 0.8565                 1.4966

                     13                     14                     15
                      A                      A                      A
 Frequencies --    254.1223               261.7843               279.0352
 Red. masses --      3.6058                 2.1633                 1.3745
 Frc consts  --      0.1372                 0.0873                 0.0631
 IR Inten    --      4.1174                 3.2003                 0.7813

                     16                     17                     18
                      A                      A                      A
 Frequencies --    288.2901               293.8387               300.4069
 Red. masses --      1.5032                 2.5062                 2.6485
 Frc consts  --      0.0736                 0.1275                 0.1408
 IR Inten    --      2.0348                 7.4790                 2.2770

                     19                     20                     21
                      A                      A                      A
 Frequencies --    305.2465               308.8602               326.8573
 Red. masses --      2.2814                 3.3627                 2.8408
 Frc consts  --      0.1252                 0.1890                 0.1788
 IR Inten    --      3.0600                 0.1574                 2.0211

                     22                     23                     24
                      A                      A                      A
 Frequencies --    335.8928               355.2746               367.5741
 Red. masses --      1.1750                 1.3444                 3.8184
 Frc consts  --      0.0781                 0.1000                 0.3040
 IR Inten    --      4.8162                 5.4671                37.1348

                     25                     26                     27
                      A                      A                      A
 Frequencies --    415.3745               420.9640               469.3958
 Red. masses --      2.3949                 2.4517                 2.8614
 Frc consts  --      0.2435                 0.2560                 0.3715
 IR Inten    --      1.1605                 0.9693                 5.1546

                     28                     29                     30
                      A                      A                      A
 Frequencies --    501.5309               506.2941               533.4528
 Red. masses --      3.0357                 3.0026                 2.7766
 Frc consts  --      0.4499                 0.4535                 0.4655
 IR Inten    --     24.0894                17.3324                 0.0941

                     31                     32                     33
                      A                      A                      A
 Frequencies --    546.2688               570.4367               578.1461
 Red. masses --      3.5004                 3.0461                 4.1292
 Frc consts  --      0.6154                 0.5840                 0.8132
 IR Inten    --      0.8967                16.2866                31.8401

                     34                     35                     36
                      A                      A                      A
 Frequencies --    587.9535               605.8605               632.6464
 Red. masses --      4.9049                 6.7020                 3.7179
 Frc consts  --      0.9990                 1.4494                 0.8767
 IR Inten    --     28.4904                 2.1038                 0.2765

                     37                     38                     39
                      A                      A                      A
 Frequencies --    693.8476               732.1331               757.4309
 Red. masses --      5.7878                 3.2171                 2.9639
 Frc consts  --      1.6417                 1.0160                 1.0018
 IR Inten    --      2.6121                 3.8783                12.1628

                     40                     41                     42
                      A                      A                      A
 Frequencies --    819.6293               857.0550               870.5749
 Red. masses --      1.2564                 1.8819                 3.0797
 Frc consts  --      0.4973                 0.8145                 1.3752
 IR Inten    --      8.7859                40.9141                35.3276

                     43                     44                     45
                      A                      A                      A
 Frequencies --    871.9204               893.4131               894.0455
 Red. masses --      1.2402                 1.8880                 2.2490
 Frc consts  --      0.5555                 0.8879                 1.0592
 IR Inten    --      1.8049                44.1970                48.0757

                     46                     47                     48
                      A                      A                      A
 Frequencies --    905.1902               911.5365               924.6169
 Red. masses --      1.1305                 1.1198                 2.9609
 Frc consts  --      0.5457                 0.5482                 1.4914
 IR Inten    --      5.1778                 7.2758                76.1379

                     49                     50                     51
                      A                      A                      A
 Frequencies --    982.3210               987.7696               999.3609
 Red. masses --      2.6911                 2.4008                 2.5600
 Frc consts  --      1.5300                 1.3801                 1.5064
 IR Inten    --      7.2802               140.5223                26.0631

                     52                     53                     54
                      A                      A                      A
 Frequencies --   1012.8647              1053.4111              1057.1762
 Red. masses --      2.4474                 1.7397                 2.2282
 Frc consts  --      1.4793                 1.1374                 1.4673
 IR Inten    --      2.7960                 6.7519                15.7195

                     55                     56                     57
                      A                      A                      A
 Frequencies --   1058.9605              1105.9511              1133.5275
 Red. masses --      2.3792                 4.6053                 1.2663
 Frc consts  --      1.5720                 3.3188                 0.9586
 IR Inten    --     22.9037               255.8126                 0.3485

                     58                     59                     60
                      A                      A                      A
 Frequencies --   1138.4555              1182.3055              1186.7724
 Red. masses --      1.2694                 1.5099                 1.4671
 Frc consts  --      0.9693                 1.2435                 1.2175
 IR Inten    --      2.9458                 0.8271                 2.1435

                     61                     62                     63
                      A                      A                      A
 Frequencies --   1212.1400              1216.0951              1230.0820
 Red. masses --      1.5390                 1.8334                 1.9336
 Frc consts  --      1.3323                 1.5975                 1.7238
 IR Inten    --      0.0655                 2.5780                12.3011

                     64                     65                     66
                      A                      A                      A
 Frequencies --   1236.7952              1265.5705              1282.0903
 Red. masses --      1.6838                 5.1607                 1.8537
 Frc consts  --      1.5175                 4.8700                 1.7953
 IR Inten    --      4.7090                 0.9484                 2.4879

                     67                     68                     69
                      A                      A                      A
 Frequencies --   1284.6216              1288.5977              1319.3462
 Red. masses --      1.2574                 1.7216                 1.1642
 Frc consts  --      1.2226                 1.6843                 1.1940
 IR Inten    --     22.6572                 4.1709                44.9588

                     70                     71                     72
                      A                      A                      A
 Frequencies --   1322.9487              1324.7826              1398.3631
 Red. masses --      1.3873                 1.4422                 1.3661
 Frc consts  --      1.4305                 1.4913                 1.5739
 IR Inten    --      6.1492                10.4707                 1.0908

                     73                     74                     75
                      A                      A                      A
 Frequencies --   1405.9347              1426.2587              1455.6683
 Red. masses --      1.3859                 3.6461                 1.0787
 Frc consts  --      1.6141                 4.3699                 1.3468
 IR Inten    --      3.0142               251.4173                 0.8373

                     76                     77                     78
                      A                      A                      A
 Frequencies --   1459.1393              1462.6730              1467.3826
 Red. masses --      1.1225                 1.1076                 1.0726
 Frc consts  --      1.4080                 1.3961                 1.3607
 IR Inten    --      4.5853                 2.2412                 4.2929

                     79                     80                     81
                      A                      A                      A
 Frequencies --   1469.1204              1477.5969              1481.8236
 Red. masses --      1.0705                 1.0999                 1.1374
 Frc consts  --      1.3613                 1.4149                 1.4714
 IR Inten    --     16.2459                18.7770                 1.8549

                     82                     83                     84
                      A                      A                      A
 Frequencies --   1487.2318              1488.9407              1492.7001
 Red. masses --      1.0571                 1.0876                 1.0627
 Frc consts  --      1.3775                 1.4206                 1.3951
 IR Inten    --      0.5843                 8.0400                12.8596

                     85                     86                     87
                      A                      A                      A
 Frequencies --   1498.4477              1503.0440              1507.7950
 Red. masses --      1.0941                 1.0955                 1.0565
 Frc consts  --      1.4474                 1.4581                 1.4152
 IR Inten    --     27.2018                36.2149                 7.3190

                     88                     89                     90
                      A                      A                      A
 Frequencies --   1510.6488              1515.1333              1519.7996
 Red. masses --      1.0506                 1.0538                 1.0571
 Frc consts  --      1.4125                 1.4253                 1.4386
 IR Inten    --     15.6703                 2.0306                29.9832

                     91                     92                     93
                      A                      A                      A
 Frequencies --   1526.7529              1529.8796              1552.7707
 Red. masses --      1.0492                 1.0488                 8.2643
 Frc consts  --      1.4409                 1.4463                11.7401
 IR Inten    --     51.2142                23.8011               192.0299

                     94                     95                     96
                      A                      A                      A
 Frequencies --   1602.5002              1647.8549              1682.0908
 Red. masses --      7.0584                10.2426                 7.6123
 Frc consts  --     10.6795                16.3870                12.6901
 IR Inten    --      0.0858               957.5889               961.1131

                     97                     98                     99
                      A                      A                      A
 Frequencies --   3028.1116              3068.9065              3069.6352
 Red. masses --      1.0376                 1.0339                 1.0341
 Frc consts  --      5.6055                 5.7373                 5.7407
 IR Inten    --     41.6774                 6.9294                14.6916

                    100                    101                    102
                      A                      A                      A
 Frequencies --   3079.2329              3079.5665              3089.0767
 Red. masses --      1.0389                 1.0389                 1.0278
 Frc consts  --      5.8036                 5.8051                 5.7784
 IR Inten    --     36.1857                 8.8174                14.9104

                    103                    104                    105
                      A                      A                      A
 Frequencies --   3092.4124              3092.8468              3114.3325
 Red. masses --      1.0597                 1.0590                 1.0967
 Frc consts  --      5.9706                 5.9687                 6.2672
 IR Inten    --     20.7370                 4.0749                37.1597

                    106                    107                    108
                      A                      A                      A
 Frequencies --   3138.5532              3147.7893              3147.9436
 Red. masses --      1.1038                 1.1077                 1.1075
 Frc consts  --      6.4059                 6.4665                 6.4664
 IR Inten    --     39.6130                 3.8743                 1.6514

                    109                    110                    111
                      A                      A                      A
 Frequencies --   3154.0819              3155.1406              3168.5657
 Red. masses --      1.1056                 1.1053                 1.0982
 Frc consts  --      6.4806                 6.4828                 6.4962
 IR Inten    --     27.2979                 2.0681                 2.7367

                    112                    113                    114
                      A                      A                      A
 Frequencies --   3168.7329              3181.7491              3182.2386
 Red. masses --      1.0982                 1.1061                 1.1061
 Frc consts  --      6.4968                 6.5976                 6.5993
 IR Inten    --      9.3984                 2.9447                 7.0881

                    115                    116                    117
                      A                      A                      A
 Frequencies --   3202.3533              3203.9427              3208.2561
 Red. masses --      1.1078                 1.1076                 1.1072
 Frc consts  --      6.6933                 6.6990                 6.7148
 IR Inten    --     10.7169                 4.2935                 4.6468

                    118                    119                    120
                      A                      A                      A
 Frequencies --   3218.8484              3224.1751              3225.0122
 Red. masses --      1.1066                 1.0926                 1.0930
 Frc consts  --      6.7553                 6.6920                 6.6977
 IR Inten    --      5.1989                 5.6298                 6.2234

 - Thermochemistry -
 -------------------
 Temperature   298.150 Kelvin.  Pressure   1.00000 Atm.
 Atom     1 has atomic number 78 and mass 194.96480

 Molecular mass:   433.15674 amu.
 Principal axes and moments of inertia in atomic units:
                           1         2         3
     Eigenvalues --  3586.621765541.290937879.17864
           X            1.00000   0.00046   0.00227
           Y           -0.00046   1.00000   0.00009
           Z           -0.00227  -0.00009   1.00000
 This molecule is an asymmetric top.
 Rotational symmetry number  1.
 Warning -- assumption of classical behavior for rotation
           may cause significant error
 Rotational temperatures (Kelvin)      0.02415     0.01563     0.01099
 Rotational constants (GHZ):           0.50319     0.32569     0.22905
 Zero-point vibrational energy     969083.2 (Joules/Mol)
                                  231.61644 (Kcal/Mol)
 Warning -- explicit consideration of  35 degrees of freedom as
           vibrations may cause significant error
 Vibrational temperatures:    114.32   118.93   156.68   171.35   211.95
          (Kelvin)            221.82   261.60   270.05   303.98   309.62
                              328.94   333.73   365.63   376.65   401.47
                              414.79   422.77   432.22   439.18   444.38
                              470.27   483.27   511.16   528.86   597.63
                              605.67   675.36   721.59   728.44   767.52
                              785.96   820.73   831.82   845.93   871.70
                              910.24   998.29  1053.38  1089.77  1179.26
                             1233.11  1252.56  1254.50  1285.42  1286.33
                             1302.37  1311.50  1330.32  1413.34  1421.18
                             1437.86  1457.29  1515.62  1521.04  1523.61
                             1591.22  1630.89  1637.98  1701.07  1707.50
                             1744.00  1749.69  1769.81  1779.47  1820.87
                             1844.64  1848.28  1854.00  1898.24  1903.43
                             1906.07  2011.93  2022.83  2052.07  2094.38
                             2099.38  2104.46  2111.24  2113.74  2125.93
                             2132.01  2139.79  2142.25  2147.66  2155.93
                             2162.55  2169.38  2173.49  2179.94  2186.65
                             2196.66  2201.16  2234.09  2305.64  2370.90
                             2420.15  4356.78  4415.47  4416.52  4430.33
                             4430.81  4444.49  4449.29  4449.92  4480.83
                             4515.68  4528.97  4529.19  4538.02  4539.54
                             4558.86  4559.10  4577.83  4578.53  4607.47
                             4609.76  4615.97  4631.20  4638.87  4640.07

 Zero-point correction=                           0.369104 (Hartree/Particle)
 Thermal correction to Energy=                    0.388345
 Thermal correction to Enthalpy=                  0.389289
 Thermal correction to Gibbs Free Energy=         0.324197
 Sum of electronic and zero-point Energies=           -868.263254
 Sum of electronic and thermal Energies=              -868.244013
 Sum of electronic and thermal Enthalpies=            -868.243069
 Sum of electronic and thermal Free Energies=         -868.308161

                     E (Thermal)             CV                S
                      KCal/Mol        Cal/Mol-Kelvin    Cal/Mol-Kelvin
 Total                  243.690             77.084            136.998
 Electronic               0.000              0.000              0.000
 Translational            0.889              2.981             44.088
 Rotational               0.889              2.981             33.415
 Vibrational            241.913             71.123             59.496
 Vibration     1          0.600              1.963              3.904
 Vibration     2          0.600              1.961              3.827
 Vibration     3          0.606              1.942              3.289
 Vibration     4          0.609              1.933              3.115
 Vibration     5          0.617              1.906              2.707
 Vibration     6          0.620              1.898              2.620
 Vibration     7          0.630              1.864              2.310
 Vibration     8          0.632              1.857              2.250
 Vibration     9          0.643              1.824              2.033
 Vibration    10          0.645              1.818              1.999
 Vibration    11          0.651              1.797              1.890
 Vibration    12          0.653              1.792              1.864
 Vibration    13          0.665              1.756              1.702
 Vibration    14          0.669              1.743              1.650
 Vibration    15          0.679              1.712              1.540
 Vibration    16          0.685              1.695              1.484
 Vibration    17          0.689              1.685              1.452
 Vibration    18          0.693              1.673              1.415
 Vibration    19          0.696              1.664              1.388
 Vibration    20          0.698              1.657              1.368
 Vibration    21          0.711              1.622              1.276
 Vibration    22          0.717              1.604              1.232
 Vibration    23          0.731              1.564              1.143
 Vibration    24          0.740              1.539              1.090
 Vibration    25          0.779              1.437              0.908
 Vibration    26          0.783              1.425              0.889
 Vibration    27          0.827              1.318              0.739
 Vibration    28          0.857              1.247              0.654
 Vibration    29          0.862              1.236              0.643
 Vibration    30          0.888              1.176              0.580
 Vibration    31          0.901              1.148              0.552
 Vibration    32          0.927              1.095              0.503
 Vibration    33          0.935              1.079              0.489
 Vibration    34          0.945              1.057              0.471
 Vibration    35          0.964              1.019              0.440

 Optimization completed.
    -- Stationary point found.
 Normal termination of Gaussian 16 at Fri May 24 15:10:30 2024.
