 Gaussian 16, Revision C.01,
 Gaussian 16:  ES64L-G16RevC.01  3-Jul-2019

 ----------------------------------------------------------
 # wb97xd def2TZVPP SCRF=(solvent=dichloromethane) opt freq
 ----------------------------------------------------------

 ------------
 ZPtMeH_sigma
 ------------
 Symbolic Z-matrix:
 Charge =  1 Multiplicity = 1

 SCF Done:  E(RwB97XD) =  -829.340784390     A.U. after   18 cycles
 SCF Done:  E(RwB97XD) =  -829.346900061     A.U. after   14 cycles
 SCF Done:  E(RwB97XD) =  -829.347266756     A.U. after   13 cycles
 SCF Done:  E(RwB97XD) =  -829.348591363     A.U. after   14 cycles
 SCF Done:  E(RwB97XD) =  -829.349247888     A.U. after   14 cycles
 SCF Done:  E(RwB97XD) =  -829.349164529     A.U. after   13 cycles
 SCF Done:  E(RwB97XD) =  -829.348243611     A.U. after   13 cycles
 SCF Done:  E(RwB97XD) =  -829.348188380     A.U. after   12 cycles
 SCF Done:  E(RwB97XD) =  -829.349312509     A.U. after    9 cycles
 SCF Done:  E(RwB97XD) =  -829.349825769     A.U. after   13 cycles
 SCF Done:  E(RwB97XD) =  -829.349962860     A.U. after   11 cycles
 SCF Done:  E(RwB97XD) =  -829.349959693     A.U. after   12 cycles
 SCF Done:  E(RwB97XD) =  -829.349985947     A.U. after   11 cycles
 SCF Done:  E(RwB97XD) =  -829.349978350     A.U. after   11 cycles
 SCF Done:  E(RwB97XD) =  -829.349986033     A.U. after   11 cycles
 SCF Done:  E(RwB97XD) =  -829.349981115     A.U. after   11 cycles
 SCF Done:  E(RwB97XD) =  -829.349988705     A.U. after   11 cycles
 SCF Done:  E(RwB97XD) =  -829.349988524     A.U. after    9 cycles
 SCF Done:  E(RwB97XD) =  -829.349988691     A.U. after    7 cycles
 Optimization completed.
    -- Stationary point found.
 Normal termination of Gaussian 16 at Wed Mar  6 10:37:30 2024.

 ----------------------------------------------------------------------
 #N Geom=AllCheck Guess=TCheck SCRF=Check GenChk RwB97XD/def2TZVPP Freq
 ----------------------------------------------------------------------

 Structure from the checkpoint file:  "ZPtMeH_sigma.chk"
 ------------
 ZPtMeH_sigma
 ------------
 Charge =  1 Multiplicity = 1

                         Standard orientation:
 ---------------------------------------------------------------------
 Center     Atomic      Atomic             Coordinates (Angstroms)
 Number     Number       Type             X           Y           Z
 ---------------------------------------------------------------------
      1         78           0       -0.857617    0.000030   -0.097728
      2          6           0        1.715629    1.182129   -0.221357
      3          6           0        1.715544   -1.182236   -0.221229
      4          6           0        3.052294    1.225135   -0.008144
      5          6           0        3.052211   -1.225315   -0.008012
      6          6           0        3.820435   -0.000112    0.131312
      7          1           0        3.570085    2.172013    0.049835
      8          1           0        3.569928   -2.172227    0.050060
      9          8           0        5.039723   -0.000137    0.344574
     10          7           0        1.062953   -0.000039   -0.315203
     11          6           0        0.806064    2.343339   -0.495318
     12          1           0        0.729632    2.459900   -1.576291
     13          1           0        1.182851    3.276517   -0.078380
     14          6           0        0.805939   -2.343438   -0.495105
     15          1           0        0.729644   -2.460180   -1.576067
     16          1           0        1.182627   -3.276564   -0.077964
     17          7           0       -0.580766    2.081417    0.021582
     18          7           0       -0.580963   -2.081386    0.021567
     19          6           0       -3.256781    0.000135    0.437549
     20          1           0       -2.711515    0.000202    1.380963
     21          1           0       -3.866570    0.896280    0.383666
     22          1           0       -3.866537   -0.896042    0.383816
     23          6           0       -1.543231    2.897392   -0.748823
     24          1           0       -2.535884    2.780846   -0.322935
     25          1           0       -1.258902    3.949804   -0.700842
     26          1           0       -1.550462    2.567306   -1.783892
     27          6           0       -0.640721    2.473136    1.453075
     28          1           0       -0.456574    3.544610    1.543843
     29          1           0       -1.624406    2.246091    1.854815
     30          1           0        0.115079    1.928205    2.012907
     31          6           0       -1.543379   -2.897213   -0.749073
     32          1           0       -1.259147   -3.949652   -0.701144
     33          1           0       -2.536088   -2.780626   -0.323328
     34          1           0       -1.550419   -2.567026   -1.784112
     35          6           0       -0.641233   -2.473201    1.453013
     36          1           0       -1.624992   -2.246143    1.854569
     37          1           0       -0.457163   -3.544692    1.543743
     38          1           0        0.114474   -1.928347    2.013043
     39          1           0       -2.684515    0.000018   -0.543069
 ---------------------------------------------------------------------

 SCF Done:  E(RwB97XD) =  -829.349988690     A.U. after    1 cycles

 The electronic state is 1-A.
 Alpha  occ. eigenvalues --  -19.20565 -14.55247 -14.55247 -14.50589 -10.36552
 Alpha  occ. eigenvalues --  -10.36504 -10.36501 -10.36351 -10.36350 -10.34564
 Alpha  occ. eigenvalues --  -10.34564 -10.34539 -10.34539 -10.33570 -10.29688
 Alpha  occ. eigenvalues --  -10.29688  -4.08809  -2.33716  -2.33438  -2.29904
 Alpha  occ. eigenvalues --   -1.12445  -1.11285  -1.10250  -1.08504  -0.94146
 Alpha  occ. eigenvalues --   -0.89403  -0.87295  -0.86379  -0.85773  -0.85703
 Alpha  occ. eigenvalues --   -0.83406  -0.76742  -0.75691  -0.74271  -0.69828
 Alpha  occ. eigenvalues --   -0.65987  -0.63774  -0.63153  -0.62082  -0.61700
 Alpha  occ. eigenvalues --   -0.60840  -0.60118  -0.59277  -0.58143  -0.56165
 Alpha  occ. eigenvalues --   -0.55166  -0.54853  -0.54609  -0.53673  -0.52895
 Alpha  occ. eigenvalues --   -0.52757  -0.51641  -0.50977  -0.50501  -0.50431
 Alpha  occ. eigenvalues --   -0.49981  -0.49785  -0.49184  -0.48773  -0.47548
 Alpha  occ. eigenvalues --   -0.47226  -0.46802  -0.43257  -0.40082  -0.38934
 Alpha  occ. eigenvalues --   -0.38777  -0.36580  -0.36338  -0.33163  -0.30278
 Alpha virt. eigenvalues --   -0.01251   0.02828   0.03236   0.05877   0.06913
 Alpha virt. eigenvalues --    0.09825   0.10035   0.11616   0.11882   0.12855
 Alpha virt. eigenvalues --    0.12955   0.13799   0.14086   0.14775   0.14785

 Mulliken charges:
               1
     1  Pt   0.381239
     2  C    0.092410
     3  C    0.092443
     4  C   -0.261465
     5  C   -0.261496
     6  C    0.293039
     7  H    0.111718
     8  H    0.111718
     9  O   -0.517753
    10  N   -0.218502
    11  C   -0.061510
    12  H    0.134724
    13  H    0.127562
    14  C   -0.061498
    15  H    0.134717
    16  H    0.127559
    17  N   -0.068393
    18  N   -0.068406
    19  C   -0.313583
    20  H    0.145211
    21  H    0.134221
    22  H    0.134218
    23  C   -0.179543
    24  H    0.111146
    25  H    0.129166
    26  H    0.126710
    27  C   -0.198011
    28  H    0.120680
    29  H    0.121751
    30  H    0.137760
    31  C   -0.179551
    32  H    0.129173
    33  H    0.111142
    34  H    0.126709
    35  C   -0.198006
    36  H    0.121746
    37  H    0.120679
    38  H    0.137760
    39  H    0.072516
 Sum of Mulliken charges =   1.00000

 Dipole moment (field-independent basis, Debye):
    X=            -16.3415    Y=              0.0003    Z=             -0.2003  Tot=             16.3428
 Quadrupole moment (field-independent basis, Debye-Ang):
   XX=           -150.6433   YY=            -72.2488   ZZ=           -111.3215
   XY=              0.0027   XZ=             -6.2209   YZ=              0.0001

  Exact polarizability:     329.300      -0.000     268.408       9.034      -0.002     181.765
 Approx polarizability:     264.063      -0.000     223.986       8.895      -0.002     177.977

                      1                      2                      3
                      A                      A                      A
 Frequencies --     43.7073                49.3314                80.8212
 Red. masses --      2.8259                 4.3915                 3.7460
 Frc consts  --      0.0032                 0.0063                 0.0144
 IR Inten    --      0.7249                 3.8015                 6.1643

                      4                      5                      6
                      A                      A                      A
 Frequencies --    124.2565               139.3496               170.9761
 Red. masses --      3.6032                 2.3019                 4.2832
 Frc consts  --      0.0328                 0.0263                 0.0738
 IR Inten    --      8.9420                 0.2267                 0.3446

                      7                      8                      9
                      A                      A                      A
 Frequencies --    194.1511               202.0143               218.4832
 Red. masses --      4.3937                 2.7416                 3.0311
 Frc consts  --      0.0976                 0.0659                 0.0852
 IR Inten    --      4.2941                 0.1712                 3.5555

                     10                     11                     12
                      A                      A                      A
 Frequencies --    230.1078               249.8911               257.7626
 Red. masses --      4.1533                 2.0105                 1.1128
 Frc consts  --      0.1296                 0.0740                 0.0436
 IR Inten    --      9.4587                 0.9657                 0.4940

                     13                     14                     15
                      A                      A                      A
 Frequencies --    262.8262               268.0967               271.5607
 Red. masses --      1.4020                 3.3665                 2.7976
 Frc consts  --      0.0571                 0.1426                 0.1216
 IR Inten    --      1.5564                 1.4281                 0.9226

                     16                     17                     18
                      A                      A                      A
 Frequencies --    278.9971               292.3920               292.8111
 Red. masses --      2.3746                 3.9251                 3.8054
 Frc consts  --      0.1089                 0.1977                 0.1922
 IR Inten    --      4.2732                 0.4044                 4.7337

                     19                     20                     21
                      A                      A                      A
 Frequencies --    309.6708               310.6159               350.2918
 Red. masses --      1.2338                 1.2936                 1.2317
 Frc consts  --      0.0697                 0.0735                 0.0890
 IR Inten    --      0.9371                 0.7775                 1.1394

                     22                     23                     24
                      A                      A                      A
 Frequencies --    363.6025               405.4767               413.7249
 Red. masses --      4.3444                 2.2138                 2.2945
 Frc consts  --      0.3384                 0.2144                 0.2314
 IR Inten    --     10.4739                 1.1499                 0.8095

                     25                     26                     27
                      A                      A                      A
 Frequencies --    449.9106               461.1537               498.2693
 Red. masses --      1.2020                 2.5694                 3.2661
 Frc consts  --      0.1434                 0.3219                 0.4778
 IR Inten    --     16.6908                 0.0432                 9.9541

                     28                     29                     30
                      A                      A                      A
 Frequencies --    500.1106               533.0388               543.0373
 Red. masses --      3.3907                 2.9959                 3.6820
 Frc consts  --      0.4997                 0.5015                 0.6397
 IR Inten    --     11.8260                 0.8776                 0.0037

                     31                     32                     33
                      A                      A                      A
 Frequencies --    569.7778               580.0487               620.7037
 Red. masses --      2.9594                 1.1094                 4.7477
 Frc consts  --      0.5661                 0.2199                 1.0777
 IR Inten    --     18.1498                 0.0745                 8.4048

                     34                     35                     36
                      A                      A                      A
 Frequencies --    624.3653               694.9361               728.1227
 Red. masses --      4.1958                 5.7493                 3.0613
 Frc consts  --      0.9637                 1.6359                 0.9562
 IR Inten    --     15.9681                 1.2919                 0.7080

                     37                     38                     39
                      A                      A                      A
 Frequencies --    743.1633               861.2594               878.4816
 Red. masses --      2.9580                 1.5756                 2.5872
 Frc consts  --      0.9625                 0.6886                 1.1764
 IR Inten    --     32.6715                21.3198                48.2212

                     40                     41                     42
                      A                      A                      A
 Frequencies --    895.9397               896.7516               930.0638
 Red. masses --      2.7648                 2.2544                 2.9278
 Frc consts  --      1.3076                 1.0681                 1.4922
 IR Inten    --     33.9490                71.3600                67.1265

                     43                     44                     45
                      A                      A                      A
 Frequencies --    990.5055               997.4158              1000.1241
 Red. masses --      2.5458                 2.2785                 2.4970
 Frc consts  --      1.4716                 1.3355                 1.4716
 IR Inten    --      0.5008                80.2306                22.4354

                     46                     47                     48
                      A                      A                      A
 Frequencies --   1014.1772              1048.5886              1050.5433
 Red. masses --      2.3460                 1.6991                 1.6625
 Frc consts  --      1.4217                 1.1007                 1.0810
 IR Inten    --     27.0390                 3.6832                19.7247

                     49                     50                     51
                      A                      A                      A
 Frequencies --   1058.4931              1129.3277              1135.0321
 Red. masses --      3.3380                 4.4478                 1.2687
 Frc consts  --      2.2035                 3.3422                 0.9630
 IR Inten    --     17.6238                70.4011                 0.4538

                     52                     53                     54
                      A                      A                      A
 Frequencies --   1138.7524              1178.7781              1184.9045
 Red. masses --      1.3116                 1.5412                 1.4806
 Frc consts  --      1.0021                 1.2617                 1.2248
 IR Inten    --      9.3968                 0.3513                 2.9454

                     55                     56                     57
                      A                      A                      A
 Frequencies --   1215.9085              1218.8373              1219.8601
 Red. masses --      1.4309                 1.2185                 1.7805
 Frc consts  --      1.2464                 1.0666                 1.5611
 IR Inten    --      2.9427                19.1461                 3.8216

                     58                     59                     60
                      A                      A                      A
 Frequencies --   1235.8798              1240.9236              1267.0856
 Red. masses --      1.9706                 1.7326                 3.9971
 Frc consts  --      1.7734                 1.5720                 3.7810
 IR Inten    --     12.5106                13.0339                 0.2837

                     61                     62                     63
                      A                      A                      A
 Frequencies --   1279.0936              1282.9910              1321.7712
 Red. masses --      2.1537                 2.0188                 1.4086
 Frc consts  --      2.0760                 1.9579                 1.4500
 IR Inten    --      4.4968                 2.1499                 2.5281

                     64                     65                     66
                      A                      A                      A
 Frequencies --   1323.4071              1383.9678              1392.0654
 Red. masses --      1.4820                 1.1478                 1.4178
 Frc consts  --      1.5293                 1.2953                 1.6187
 IR Inten    --     10.4235                13.0202                 1.4460

                     67                     68                     69
                      A                      A                      A
 Frequencies --   1401.9195              1426.8707              1439.5961
 Red. masses --      1.4367                 3.8137                 1.1152
 Frc consts  --      1.6637                 4.5748                 1.3617
 IR Inten    --     10.1535               168.7190                52.2127

                     70                     71                     72
                      A                      A                      A
 Frequencies --   1457.1300              1458.3428              1475.5027
 Red. masses --      1.1477                 1.1489                 1.1159
 Frc consts  --      1.4357                 1.4396                 1.4314
 IR Inten    --      0.0007                16.4210                16.0197

                     73                     74                     75
                      A                      A                      A
 Frequencies --   1476.7556              1485.5815              1486.5230
 Red. masses --      1.1051                 1.0439                 1.0419
 Frc consts  --      1.4199                 1.3574                 1.3566
 IR Inten    --      5.1140                 2.0126                 0.2589

                     76                     77                     78
                      A                      A                      A
 Frequencies --   1489.9981              1492.2015              1498.8320
 Red. masses --      1.1269                 1.1366                 1.0601
 Frc consts  --      1.4741                 1.4911                 1.4032
 IR Inten    --      0.0315                 1.2021                 2.2844

                     79                     80                     81
                      A                      A                      A
 Frequencies --   1500.6378              1506.9558              1508.1493
 Red. masses --      1.0555                 1.0474                 1.0474
 Frc consts  --      1.4005                 1.4014                 1.4036
 IR Inten    --     34.6257                46.4776                21.6500

                     82                     83                     84
                      A                      A                      A
 Frequencies --   1513.5034              1515.6339              1539.9513
 Red. masses --      1.0532                 1.0531                 7.9382
 Frc consts  --      1.4215                 1.4252                11.0913
 IR Inten    --     34.7653                54.4812               171.7680

                     85                     86                     87
                      A                      A                      A
 Frequencies --   1544.8833              1611.1289              1651.9957
 Red. masses --      1.0183                 7.1959                 9.4236
 Frc consts  --      1.4319                11.0052                15.1525
 IR Inten    --      5.2054                 4.3507              1037.3950

                     88                     89                     90
                      A                      A                      A
 Frequencies --   1673.7440              1690.5960              2580.9281
 Red. masses --      1.0476                 6.6790                 1.0671
 Frc consts  --      1.7291                11.2471                 4.1881
 IR Inten    --     90.5599               770.8223                 8.5945

                     91                     92                     93
                      A                      A                      A
 Frequencies --   3063.5933              3063.6175              3066.0916
 Red. masses --      1.0371                 1.0372                 1.0372
 Frc consts  --      5.7349                 5.7355                 5.7448
 IR Inten    --     21.0577                 8.0458                73.9674

                     94                     95                     96
                      A                      A                      A
 Frequencies --   3066.8279              3089.8258              3090.0920
 Red. masses --      1.0374                 1.0599                 1.0599
 Frc consts  --      5.7486                 5.9621                 5.9630
 IR Inten    --     13.7112                15.1872                 4.1810

                     97                     98                     99
                      A                      A                      A
 Frequencies --   3095.5290              3145.4105              3145.5573
 Red. masses --      1.0389                 1.1071                 1.1070
 Frc consts  --      5.8651                 6.4534                 6.4536
 IR Inten    --      0.1567                11.8109                 1.0692

                    100                    101                    102
                      A                      A                      A
 Frequencies --   3153.4386              3153.6051              3155.2694
 Red. masses --      1.1011                 1.1010                 1.0999
 Frc consts  --      6.4512                 6.4515                 6.4518
 IR Inten    --      1.6925                 6.9091                25.5309

                    103                    104                    105
                      A                      A                      A
 Frequencies --   3155.3816              3173.6907              3183.0027
 Red. masses --      1.0999                 1.0975                 1.1073
 Frc consts  --      6.4521                 6.5133                 6.6096
 IR Inten    --      7.2859                 5.7749                 0.2740

                    106                    107                    108
                      A                      A                      A
 Frequencies --   3183.0600              3186.3173              3186.4621
 Red. masses --      1.1070                 1.1068                 1.1067
 Frc consts  --      6.6080                 6.6203                 6.6204
 IR Inten    --      6.8991                 0.5133                25.1231

                    109                    110                    111
                      A                      A                      A
 Frequencies --   3211.1627              3226.8657              3227.5998
 Red. masses --      1.1067                 1.0925                 1.0929
 Frc consts  --      6.7237                 6.7025                 6.7078
 IR Inten    --      1.0254                 4.0270                 3.4251

 - Thermochemistry -
 -------------------
 Temperature   298.150 Kelvin.  Pressure   1.00000 Atm.
 Atom     1 has atomic number 78 and mass 194.96480

 Molecular mass:   419.14109 amu.
 Principal axes and moments of inertia in atomic units:
                           1         2         3
     Eigenvalues --  3331.693565244.030417763.36129
           X            0.99998   0.00001  -0.00672
           Y           -0.00001   1.00000   0.00000
           Z            0.00672  -0.00000   0.99998
 This molecule is an asymmetric top.
 Rotational symmetry number  1.
 Warning -- assumption of classical behavior for rotation
           may cause significant error
 Rotational temperatures (Kelvin)      0.02600     0.01652     0.01116
 Rotational constants (GHZ):           0.54169     0.34415     0.23247
 Zero-point vibrational energy     894497.2 (Joules/Mol)
                                  213.78995 (Kcal/Mol)
 Warning -- explicit consideration of  33 degrees of freedom as
           vibrations may cause significant error
 Vibrational temperatures:     62.89    70.98   116.28   178.78   200.49
          (Kelvin)            246.00   279.34   290.65   314.35   331.07
                              359.54   370.86   378.15   385.73   390.72
                              401.41   420.69   421.29   445.55   446.91
                              503.99   523.14   583.39   595.26   647.32
                              663.50   716.90   719.55   766.92   781.31
                              819.78   834.56   893.05   898.32   999.86
                             1047.61  1069.25  1239.16  1263.94  1289.06
                             1290.23  1338.15  1425.12  1435.06  1438.96
                             1459.17  1508.69  1511.50  1522.94  1624.85
                             1633.06  1638.41  1696.00  1704.81  1749.42
                             1753.64  1755.11  1778.16  1785.41  1823.05
                             1840.33  1845.94  1901.73  1904.09  1991.22
                             2002.87  2017.05  2052.95  2071.26  2096.49
                             2098.23  2122.92  2124.72  2137.42  2138.77
                             2143.77  2146.95  2156.48  2159.08  2168.17
                             2169.89  2177.59  2180.66  2215.65  2222.74
                             2318.06  2376.85  2408.14  2432.39  3713.38
                             4407.83  4407.86  4411.42  4412.48  4445.57
                             4445.95  4453.78  4525.54  4525.76  4537.09
                             4537.33  4539.73  4539.89  4566.23  4579.63
                             4579.71  4584.40  4584.61  4620.15  4642.74
                             4643.80

 Zero-point correction=                           0.340696 (Hartree/Particle)
 Thermal correction to Energy=                    0.359094
 Thermal correction to Enthalpy=                  0.360038
 Thermal correction to Gibbs Free Energy=         0.295459
 Sum of electronic and zero-point Energies=           -829.009293
 Sum of electronic and thermal Energies=              -828.990895
 Sum of electronic and thermal Enthalpies=            -828.989950
 Sum of electronic and thermal Free Energies=         -829.054530

                     E (Thermal)             CV                S
                      KCal/Mol        Cal/Mol-Kelvin    Cal/Mol-Kelvin
 Total                  225.335             71.884            135.919
 Electronic               0.000              0.000              0.000
 Translational            0.889              2.981             43.990
 Rotational               0.889              2.981             33.272
 Vibrational            223.558             65.923             58.658
 Vibration     1          0.595              1.980              5.084
 Vibration     2          0.595              1.978              4.844
 Vibration     3          0.600              1.962              3.871
 Vibration     4          0.610              1.929              3.033
 Vibration     5          0.615              1.914              2.813
 Vibration     6          0.626              1.878              2.425
 Vibration     7          0.635              1.848              2.188
 Vibration     8          0.639              1.837              2.115
 Vibration     9          0.646              1.813              1.972
 Vibration    10          0.652              1.795              1.878
 Vibration    11          0.663              1.763              1.731
 Vibration    12          0.667              1.750              1.677
 Vibration    13          0.670              1.741              1.643
 Vibration    14          0.673              1.732              1.608
 Vibration    15          0.675              1.726              1.586
 Vibration    16          0.679              1.712              1.540
 Vibration    17          0.688              1.688              1.460
 Vibration    18          0.688              1.687              1.458
 Vibration    19          0.699              1.655              1.364
 Vibration    20          0.699              1.653              1.359
 Vibration    21          0.727              1.575              1.165
 Vibration    22          0.737              1.547              1.107
 Vibration    23          0.770              1.458              0.943
 Vibration    24          0.777              1.440              0.914
 Vibration    25          0.809              1.361              0.796
 Vibration    26          0.819              1.336              0.763
 Vibration    27          0.854              1.254              0.662
 Vibration    28          0.856              1.250              0.658
 Vibration    29          0.888              1.177              0.580
 Vibration    30          0.898              1.155              0.559
 Vibration    31          0.926              1.097              0.505
 Vibration    32          0.937              1.074              0.485
 Vibration    33          0.981              0.988              0.415

 Optimization completed.
    -- Stationary point found.
 Normal termination of Gaussian 16 at Wed Mar  6 23:03:46 2024.
