 Gaussian 16, Revision C.01,
 Gaussian 16:  ES64L-G16RevC.01  3-Jul-2019

 ----------------------------------------------------------
 # wb97xd def2TZVPP SCRF=(solvent=dichloromethane) opt freq
 ----------------------------------------------------------

 ---
 ZRh
 ---
 Symbolic Z-matrix:
 Charge =  0 Multiplicity = 1

 SCF Done:  E(RwB97XD) =  -780.148979929     A.U. after   21 cycles
 SCF Done:  E(RwB97XD) =  -780.154264787     A.U. after   16 cycles
 SCF Done:  E(RwB97XD) =  -780.154753415     A.U. after   15 cycles
 SCF Done:  E(RwB97XD) =  -780.154821642     A.U. after   15 cycles
 SCF Done:  E(RwB97XD) =  -780.154948899     A.U. after   12 cycles
 SCF Done:  E(RwB97XD) =  -780.154983972     A.U. after   14 cycles
 SCF Done:  E(RwB97XD) =  -780.154987410     A.U. after   12 cycles
 SCF Done:  E(RwB97XD) =  -780.154987907     A.U. after    9 cycles
 Optimization completed.
    -- Stationary point found.
 Normal termination of Gaussian 16 at Thu Mar  7 18:32:38 2024.

 ----------------------------------------------------------------------
 #N Geom=AllCheck Guess=TCheck SCRF=Check GenChk RwB97XD/def2TZVPP Freq
 ----------------------------------------------------------------------

 Structure from the checkpoint file:  "ZRh.chk"
 ---
 ZRh
 ---
 Charge =  0 Multiplicity = 1

                         Standard orientation:
 ---------------------------------------------------------------------
 Center     Atomic      Atomic             Coordinates (Angstroms)
 Number     Number       Type             X           Y           Z
 ---------------------------------------------------------------------
      1          6           0       -1.316536   -1.167557   -0.228026
      2          6           0       -1.316536    1.167557   -0.228026
      3          6           0       -2.669977   -1.214193   -0.061860
      4          6           0       -2.669977    1.214192   -0.061860
      5          6           0       -3.443232   -0.000000    0.050143
      6          1           0       -3.185152   -2.165000   -0.021893
      7          1           0       -3.185152    2.165000   -0.021893
      8          8           0       -4.682722   -0.000000    0.218561
      9          7           0       -0.651048   -0.000000   -0.284671
     10          6           0       -0.415792   -2.346762   -0.480882
     11          1           0       -0.328200   -2.462331   -1.562049
     12          1           0       -0.832160   -3.274482   -0.079493
     13          6           0       -0.415792    2.346762   -0.480882
     14          1           0       -0.328200    2.462331   -1.562048
     15          1           0       -0.832160    3.274482   -0.079493
     16          7           0        0.956095   -2.114011    0.049822
     17          7           0        0.956095    2.114011    0.049822
     18          6           0        1.920185   -2.943611   -0.683777
     19          1           0        2.914323   -2.780682   -0.271321
     20          1           0        1.673487   -4.008037   -0.598793
     21          1           0        1.921820   -2.656210   -1.732501
     22          6           0        0.987834   -2.482857    1.476906
     23          1           0        0.799461   -3.555635    1.599913
     24          1           0        1.963147   -2.242856    1.894501
     25          1           0        0.227475   -1.923279    2.016490
     26          6           0        1.920185    2.943611   -0.683778
     27          1           0        1.673487    4.008037   -0.598793
     28          1           0        2.914323    2.780682   -0.271321
     29          1           0        1.921820    2.656210   -1.732501
     30          6           0        0.987834    2.482857    1.476906
     31          1           0        1.963147    2.242856    1.894501
     32          1           0        0.799461    3.555635    1.599913
     33          1           0        0.227475    1.923279    2.016490
     34         45           0        1.264805    0.000000   -0.078049
 ---------------------------------------------------------------------

 SCF Done:  E(RwB97XD) =  -780.154987907     A.U. after    1 cycles

 The electronic state is 1-A.
 Alpha  occ. eigenvalues --  -19.17362 -14.48923 -14.48922 -14.45362 -10.33330
 Alpha  occ. eigenvalues --  -10.32722 -10.32720 -10.32677 -10.32677 -10.31348
 Alpha  occ. eigenvalues --  -10.31348 -10.31202 -10.31202 -10.26557 -10.26557
 Alpha  occ. eigenvalues --   -3.26817  -2.03337  -2.03033  -1.99532  -1.08303
 Alpha  occ. eigenvalues --   -1.07183  -1.05771  -1.04071  -0.90163  -0.85815
 Alpha  occ. eigenvalues --   -0.83392  -0.82147  -0.82132  -0.79806  -0.72684
 Alpha  occ. eigenvalues --   -0.72117  -0.70122  -0.65890  -0.60739  -0.59986
 Alpha  occ. eigenvalues --   -0.58814  -0.58237  -0.57451  -0.56676  -0.56298
 Alpha  occ. eigenvalues --   -0.55692  -0.52356  -0.51167  -0.50310  -0.49452
 Alpha  occ. eigenvalues --   -0.49273  -0.48368  -0.47626  -0.46897  -0.46773
 Alpha  occ. eigenvalues --   -0.46493  -0.46305  -0.45745  -0.44016  -0.43182
 Alpha  occ. eigenvalues --   -0.41905  -0.40741  -0.36387  -0.33160  -0.30423
 Alpha  occ. eigenvalues --   -0.30380  -0.28467  -0.26279  -0.24043  -0.23868
 Alpha virt. eigenvalues --    0.03942   0.05537   0.06082   0.08328   0.09183
 Alpha virt. eigenvalues --    0.10223   0.10497   0.13743   0.14946   0.15297
 Alpha virt. eigenvalues --    0.15552   0.15877   0.16753   0.16774   0.17347

 Mulliken charges:
               1
     1  C    0.122072
     2  C    0.122072
     3  C   -0.291549
     4  C   -0.291549
     5  C    0.282090
     6  H    0.096599
     7  H    0.096599
     8  O   -0.580784
     9  N   -0.218749
    10  C   -0.065989
    11  H    0.115385
    12  H    0.108556
    13  C   -0.065989
    14  H    0.115385
    15  H    0.108556
    16  N   -0.098937
    17  N   -0.098937
    18  C   -0.163948
    19  H    0.106451
    20  H    0.105422
    21  H    0.104965
    22  C   -0.160989
    23  H    0.097381
    24  H    0.106411
    25  H    0.119913
    26  C   -0.163948
    27  H    0.105422
    28  H    0.106451
    29  H    0.104965
    30  C   -0.160989
    31  H    0.106410
    32  H    0.097381
    33  H    0.119913
    34  Rh  -0.086046
 Sum of Mulliken charges =  -0.00000

 Dipole moment (field-independent basis, Debye):
    X=             15.2291    Y=              0.0000    Z=              0.2253  Tot=             15.2308
 Quadrupole moment (field-independent basis, Debye-Ang):
   XX=           -159.3563   YY=            -82.2579   ZZ=           -109.5273
   XY=             -0.0000   XZ=              4.7744   YZ=              0.0000

  Exact polarizability:     313.854       0.000     268.274     -11.218      -0.000     203.087
 Approx polarizability:     245.257       0.000     212.209      -8.352       0.000     178.868

                      1                      2                      3
                      A                      A                      A
 Frequencies --     59.1938                63.3642                79.6424
 Red. masses --      3.0282                 4.4257                 4.5305
 Frc consts  --      0.0063                 0.0105                 0.0169
 IR Inten    --      1.4880                 2.9364                 5.7859

                      4                      5                      6
                      A                      A                      A
 Frequencies --    156.1546               175.7977               186.4955
 Red. masses --      3.4742                 2.9080                 3.5507
 Frc consts  --      0.0499                 0.0530                 0.0728
 IR Inten    --      4.7155                 2.7786                 0.4846

                      7                      8                      9
                      A                      A                      A
 Frequencies --    200.8192               206.9514               238.3667
 Red. masses --      3.3313                 5.9122                 3.4585
 Frc consts  --      0.0792                 0.1492                 0.1158
 IR Inten    --      5.8999                18.5049                 1.8367

                     10                     11                     12
                      A                      A                      A
 Frequencies --    250.0706               263.4608               273.7932
 Red. masses --      3.8840                 4.0384                 1.4594
 Frc consts  --      0.1431                 0.1652                 0.0645
 IR Inten    --      0.0928                 2.8844                 0.7046

                     13                     14                     15
                      A                      A                      A
 Frequencies --    274.1067               281.1904               288.1567
 Red. masses --      1.0807                 2.3851                 4.1706
 Frc consts  --      0.0478                 0.1111                 0.2040
 IR Inten    --      0.1585                 1.0467                 1.1594

                     16                     17                     18
                      A                      A                      A
 Frequencies --    303.6269               309.1580               363.5157
 Red. masses --      1.0967                 1.1905                 5.0172
 Frc consts  --      0.0596                 0.0670                 0.3906
 IR Inten    --      0.9178                 0.4293                 9.5167

                     19                     20                     21
                      A                      A                      A
 Frequencies --    406.3053               406.5618               455.8563
 Red. masses --      2.3817                 2.2527                 2.6756
 Frc consts  --      0.2317                 0.2194                 0.3276
 IR Inten    --      1.3164                 0.2589                 2.3212

                     22                     23                     24
                      A                      A                      A
 Frequencies --    483.2855               489.0959               501.0891
 Red. masses --      2.6762                 2.9298                 2.6973
 Frc consts  --      0.3683                 0.4129                 0.3990
 IR Inten    --     22.6012                 4.1406                 3.9555

                     25                     26                     27
                      A                      A                      A
 Frequencies --    533.4886               559.2881               612.7825
 Red. masses --      3.7265                 3.4405                 6.9346
 Frc consts  --      0.6249                 0.6341                 1.5342
 IR Inten    --      0.1723                 8.6641                29.2986

                     28                     29                     30
                      A                      A                      A
 Frequencies --    628.4284               695.3471               725.6058
 Red. masses --      3.6855                 5.7063                 2.8022
 Frc consts  --      0.8576                 1.6256                 0.8693
 IR Inten    --      6.1540                 1.0532                 3.8806

                     31                     32                     33
                      A                      A                      A
 Frequencies --    749.4509               853.0436               869.6848
 Red. masses --      3.0156                 1.3894                 2.4703
 Frc consts  --      0.9980                 0.5957                 1.1009
 IR Inten    --     10.3917                 7.9960                57.7894

                     34                     35                     36
                      A                      A                      A
 Frequencies --    889.9686               892.7482               943.4356
 Red. masses --      3.3578                 2.9698                 2.8929
 Frc consts  --      1.5670                 1.3945                 1.5171
 IR Inten    --     25.1447                82.4140                51.4067

                     37                     38                     39
                      A                      A                      A
 Frequencies --    998.1538              1002.5649              1011.6181
 Red. masses --      2.1551                 2.0574                 2.7350
 Frc consts  --      1.2650                 1.2184                 1.6491
 IR Inten    --     17.0651                18.5242                 3.6257

                     40                     41                     42
                      A                      A                      A
 Frequencies --   1026.5221              1051.0600              1055.5494
 Red. masses --      2.4225                 2.5150                 1.5817
 Frc consts  --      1.5040                 1.6370                 1.0383
 IR Inten    --     88.0060                25.7169                18.3467

                     43                     44                     45
                      A                      A                      A
 Frequencies --   1056.3387              1115.2226              1129.6982
 Red. masses --      1.8627                 4.7696                 1.2723
 Frc consts  --      1.2246                 3.4951                 0.9567
 IR Inten    --      2.4604                23.5786                 1.5338

                     46                     47                     48
                      A                      A                      A
 Frequencies --   1132.8279              1180.4954              1184.1705
 Red. masses --      1.2728                 1.4873                 1.4696
 Frc consts  --      0.9624                 1.2212                 1.2141
 IR Inten    --      3.8961                 0.3516                19.4984

                     49                     50                     51
                      A                      A                      A
 Frequencies --   1210.6488              1213.4483              1218.6678
 Red. masses --      1.6677                 1.8525                 1.9160
 Frc consts  --      1.4401                 1.6072                 1.6766
 IR Inten    --      1.0037                18.4948                 8.0852

                     52                     53                     54
                      A                      A                      A
 Frequencies --   1223.4968              1258.4141              1286.1525
 Red. masses --      1.6274                 5.2462                 2.1819
 Frc consts  --      1.4353                 4.8949                 2.1265
 IR Inten    --     26.4569                 3.4817                 1.8176

                     55                     56                     57
                      A                      A                      A
 Frequencies --   1289.5567              1321.3965              1323.2001
 Red. masses --      2.1575                 1.4051                 1.5022
 Frc consts  --      2.1138                 1.4455                 1.5497
 IR Inten    --      6.9617                 1.4417                14.5336

                     58                     59                     60
                      A                      A                      A
 Frequencies --   1389.3567              1398.9480              1433.9924
 Red. masses --      1.4450                 1.4774                 4.1171
 Frc consts  --      1.6434                 1.7035                 4.9880
 IR Inten    --      3.9171                 6.8205                86.1715

                     61                     62                     63
                      A                      A                      A
 Frequencies --   1449.4727              1449.6153              1471.1001
 Red. masses --      1.1590                 1.1598                 1.1596
 Frc consts  --      1.4346                 1.4360                 1.4786
 IR Inten    --      0.0155                 6.5399                13.2577

                     64                     65                     66
                      A                      A                      A
 Frequencies --   1472.4689              1483.7370              1484.2414
 Red. masses --      1.1439                 1.0422                 1.0432
 Frc consts  --      1.4613                 1.3518                 1.3540
 IR Inten    --      2.5858                 0.2835                 0.2067

                     67                     68                     69
                      A                      A                      A
 Frequencies --   1485.8348              1486.7988              1498.4287
 Red. masses --      1.0970                 1.0994                 1.0747
 Frc consts  --      1.4269                 1.4318                 1.4218
 IR Inten    --      0.6660                 2.2691                11.8371

                     70                     71                     72
                      A                      A                      A
 Frequencies --   1499.0722              1503.8040              1504.5404
 Red. masses --      1.0727                 1.0523                 1.0533
 Frc consts  --      1.4203                 1.4020                 1.4048
 IR Inten    --     39.1297                 7.7135                23.7165

                     73                     74                     75
                      A                      A                      A
 Frequencies --   1504.6809              1505.1740              1536.2187
 Red. masses --      1.0454                 1.0446                 7.3750
 Frc consts  --      1.3945                 1.3944                10.2545
 IR Inten    --     36.9483                27.7975               172.0950

                     76                     77                     78
                      A                      A                      A
 Frequencies --   1577.7312              1598.2262              1675.0265
 Red. masses --      6.7424                 9.1315                 7.6193
 Frc consts  --      9.8885                13.7426                12.5953
 IR Inten    --     78.7696              1096.7212               845.0235

                     79                     80                     81
                      A                      A                      A
 Frequencies --   3016.2443              3016.3368              3017.9875
 Red. masses --      1.0483                 1.0480                 1.0478
 Frc consts  --      5.6189                 5.6180                 5.6230
 IR Inten    --     37.9976                60.5444               258.7133

                     82                     83                     84
                      A                      A                      A
 Frequencies --   3019.1886              3055.8776              3056.3831
 Red. masses --      1.0480                 1.0618                 1.0617
 Frc consts  --      5.6283                 5.8420                 5.8435
 IR Inten    --     21.5250                87.6188                15.2082

                     85                     86                     87
                      A                      A                      A
 Frequencies --   3111.5970              3111.7768              3120.6180
 Red. masses --      1.1028                 1.1028                 1.0880
 Frc consts  --      6.2912                 6.2919                 6.2426
 IR Inten    --     11.9160                12.4879                12.4363

                     88                     89                     90
                      A                      A                      A
 Frequencies --   3120.6782              3125.0664              3125.1135
 Red. masses --      1.0880                 1.0853                 1.0853
 Frc consts  --      6.2427                 6.2448                 6.2449
 IR Inten    --     18.5038                48.0827                 6.3727

                     91                     92                     93
                      A                      A                      A
 Frequencies --   3162.3935              3162.4443              3166.7997
 Red. masses --      1.1054                 1.1054                 1.1059
 Frc consts  --      6.5131                 6.5134                 6.5346
 IR Inten    --      0.7967                28.5426                 1.4346

                     94                     95                     96
                      A                      A                      A
 Frequencies --   3166.8621              3205.0841              3206.1555
 Red. masses --      1.1059                 1.0919                 1.0918
 Frc consts  --      6.5349                 6.6084                 6.6125
 IR Inten    --     28.9822                18.2244                16.2178

 - Thermochemistry -
 -------------------
 Temperature   298.150 Kelvin.  Pressure   1.00000 Atm.
 Atom     1 has atomic number  6 and mass  12.00000

 Molecular mass:   311.04979 amu.
 Principal axes and moments of inertia in atomic units:
                           1         2         3
     Eigenvalues --  3340.257554230.681256817.58476
           X            0.99999  -0.00000   0.00324
           Y            0.00000   1.00000  -0.00000
           Z           -0.00324   0.00000   0.99999
 This molecule is an asymmetric top.
 Rotational symmetry number  1.
 Warning -- assumption of classical behavior for rotation
           may cause significant error
 Rotational temperatures (Kelvin)      0.02593     0.02047     0.01270
 Rotational constants (GHZ):           0.54030     0.42658     0.26472
 Zero-point vibrational energy     761624.1 (Joules/Mol)
                                  182.03253 (Kcal/Mol)
 Warning -- explicit consideration of  27 degrees of freedom as
           vibrations may cause significant error
 Vibrational temperatures:     85.17    91.17   114.59   224.67   252.93
          (Kelvin)            268.33   288.93   297.76   342.96   359.80
                              379.06   393.93   394.38   404.57   414.59
                              436.85   444.81   523.02   584.58   584.95
                              655.88   695.34   703.70   720.96   767.57
                              804.69   881.66   904.17  1000.45  1043.98
                             1078.29  1227.34  1251.28  1280.47  1284.47
                             1357.39  1436.12  1442.47  1455.49  1476.94
                             1512.24  1518.70  1519.84  1604.56  1625.38
                             1629.89  1698.47  1703.76  1741.85  1745.88
                             1753.39  1760.34  1810.58  1850.49  1855.38
                             1901.19  1903.79  1998.97  2012.77  2063.20
                             2085.47  2085.67  2116.58  2118.55  2134.77
                             2135.49  2137.78  2139.17  2155.90  2156.83
                             2163.64  2164.70  2164.90  2165.61  2210.28
                             2270.00  2299.49  2409.99  4339.70  4339.84
                             4342.21  4343.94  4396.73  4397.45  4476.89
                             4477.15  4489.87  4489.96  4496.27  4496.34
                             4549.98  4550.05  4556.32  4556.41  4611.40
                             4612.94

 Zero-point correction=                           0.290087 (Hartree/Particle)
 Thermal correction to Energy=                    0.306053
 Thermal correction to Enthalpy=                  0.306998
 Thermal correction to Gibbs Free Energy=         0.247603
 Sum of electronic and zero-point Energies=           -779.864901
 Sum of electronic and thermal Energies=              -779.848935
 Sum of electronic and thermal Enthalpies=            -779.847990
 Sum of electronic and thermal Free Energies=         -779.907385

                     E (Thermal)             CV                S
                      KCal/Mol        Cal/Mol-Kelvin    Cal/Mol-Kelvin
 Total                  192.051             62.247            125.007
 Electronic               0.000              0.000              0.000
 Translational            0.889              2.981             43.101
 Rotational               0.889              2.981             32.932
 Vibrational            190.274             56.285             48.974
 Vibration     1          0.597              1.974              4.484
 Vibration     2          0.597              1.972              4.350
 Vibration     3          0.600              1.963              3.900
 Vibration     4          0.620              1.896              2.596
 Vibration     5          0.628              1.872              2.373
 Vibration     6          0.632              1.858              2.262
 Vibration     7          0.638              1.839              2.126
 Vibration     8          0.641              1.830              2.070
 Vibration     9          0.656              1.782              1.815
 Vibration    10          0.663              1.763              1.730
 Vibration    11          0.670              1.740              1.639
 Vibration    12          0.676              1.722              1.572
 Vibration    13          0.676              1.721              1.570
 Vibration    14          0.681              1.708              1.526
 Vibration    15          0.685              1.696              1.485
 Vibration    16          0.695              1.667              1.397
 Vibration    17          0.699              1.656              1.367
 Vibration    18          0.737              1.547              1.107
 Vibration    19          0.771              1.457              0.940
 Vibration    20          0.771              1.456              0.939
 Vibration    21          0.814              1.348              0.778
 Vibration    22          0.839              1.287              0.701
 Vibration    23          0.845              1.274              0.686
 Vibration    24          0.856              1.248              0.655
 Vibration    25          0.888              1.176              0.579
 Vibration    26          0.915              1.119              0.525
 Vibration    27          0.972              1.005              0.428

 Optimization completed.
    -- Stationary point found.
 Normal termination of Gaussian 16 at Fri Mar  8 04:13:55 2024.
