 Gaussian 16, Revision C.01,
 Gaussian 16:  ES64L-G16RevC.01  3-Jul-2019

 ----------------------------------------------------------
 # wb97xd def2TZVPP SCRF=(solvent=dichloromethane) opt freq
 ----------------------------------------------------------

 ------------
 ZRhMeH_sigma
 ------------
 Symbolic Z-matrix:
 Charge =  0 Multiplicity = 1

 SCF Done:  E(RwB97XD) =  -820.687733338     A.U. after   18 cycles
 SCF Done:  E(RwB97XD) =  -820.693440830     A.U. after   15 cycles
 SCF Done:  E(RwB97XD) =  -820.693867722     A.U. after   14 cycles
 SCF Done:  E(RwB97XD) =  -820.694104819     A.U. after   14 cycles
 SCF Done:  E(RwB97XD) =  -820.694143130     A.U. after   13 cycles
 SCF Done:  E(RwB97XD) =  -820.694180975     A.U. after   13 cycles
 SCF Done:  E(RwB97XD) =  -820.694196457     A.U. after   13 cycles
 SCF Done:  E(RwB97XD) =  -820.694203726     A.U. after   11 cycles
 SCF Done:  E(RwB97XD) =  -820.694204347     A.U. after    9 cycles
 SCF Done:  E(RwB97XD) =  -820.694204548     A.U. after    9 cycles
 Optimization completed.
    -- Stationary point found.
 Normal termination of Gaussian 16 at Thu Mar  7 20:25:47 2024.

 ----------------------------------------------------------------------
 #N Geom=AllCheck Guess=TCheck SCRF=Check GenChk RwB97XD/def2TZVPP Freq
 ----------------------------------------------------------------------

 Structure from the checkpoint file:  "ZRhMeH_sigma.chk"
 ------------
 ZRhMeH_sigma
 ------------
 Charge =  0 Multiplicity = 1

                         Standard orientation:
 ---------------------------------------------------------------------
 Center     Atomic      Atomic             Coordinates (Angstroms)
 Number     Number       Type             X           Y           Z
 ---------------------------------------------------------------------
      1          6           0        1.544808    1.166056   -0.231124
      2          6           0        1.544833   -1.166028   -0.231135
      3          6           0        2.892089    1.214982   -0.023057
      4          6           0        2.892115   -1.214927   -0.023070
      5          6           0        3.661471    0.000035    0.112407
      6          1           0        3.405944    2.165470    0.035235
      7          1           0        3.405990   -2.165405    0.035211
      8          8           0        4.894446    0.000047    0.320493
      9          7           0        0.881064    0.000008   -0.311084
     10          6           0        0.647243    2.341845   -0.505782
     11          1           0        0.573436    2.448291   -1.588902
     12          1           0        1.054204    3.274212   -0.106250
     13          6           0        0.647291   -2.341833   -0.505797
     14          1           0        0.573471   -2.448269   -1.588917
     15          1           0        1.054277   -3.274196   -0.106281
     16          7           0       -0.734130    2.114220    0.008047
     17          7           0       -0.734080   -2.114240    0.008051
     18          6           0       -3.453771    0.000011    0.309148
     19          1           0       -2.812459    0.000578    1.201648
     20          1           0       -4.070435    0.894001    0.319941
     21          1           0       -4.069596   -0.894550    0.320481
     22          6           0       -1.675600    2.961628   -0.736490
     23          1           0       -2.674601    2.830112   -0.326841
     24          1           0       -1.399262    4.018766   -0.659037
     25          1           0       -1.680938    2.664573   -1.782306
     26          6           0       -0.779477    2.482648    1.435190
     27          1           0       -0.564989    3.549514    1.561901
     28          1           0       -1.767748    2.269055    1.835585
     29          1           0       -0.043250    1.902715    1.986769
     30          6           0       -1.675544   -2.961670   -0.736468
     31          1           0       -1.399188   -4.018803   -0.659011
     32          1           0       -2.674541   -2.830164   -0.326807
     33          1           0       -1.680900   -2.664623   -1.782286
     34          6           0       -0.779397   -2.482664    1.435196
     35          1           0       -1.767668   -2.269090    1.835604
     36          1           0       -0.564885   -3.549525    1.561908
     37          1           0       -0.043176   -1.902712    1.986762
     38          1           0       -2.898024   -0.000045   -0.669474
     39         45           0       -1.062168   -0.000015   -0.119513
 ---------------------------------------------------------------------

 SCF Done:  E(RwB97XD) =  -820.694204548     A.U. after    1 cycles

 The electronic state is 1-A.
 Alpha  occ. eigenvalues --  -19.17428 -14.49230 -14.49229 -14.44827 -10.33384
 Alpha  occ. eigenvalues --  -10.32738 -10.32738 -10.32692 -10.32689 -10.31402
 Alpha  occ. eigenvalues --  -10.31402 -10.31321 -10.31321 -10.28939 -10.26568
 Alpha  occ. eigenvalues --  -10.26567  -3.27823  -2.04226  -2.04071  -2.00592
 Alpha  occ. eigenvalues --   -1.08348  -1.07253  -1.05937  -1.04097  -0.90179
 Alpha  occ. eigenvalues --   -0.85800  -0.83502  -0.82281  -0.82280  -0.81774
 Alpha  occ. eigenvalues --   -0.79851  -0.72795  -0.72174  -0.70145  -0.65937
 Alpha  occ. eigenvalues --   -0.60882  -0.60046  -0.58917  -0.58398  -0.57528
 Alpha  occ. eigenvalues --   -0.56862  -0.56366  -0.55805  -0.52637  -0.52028
 Alpha  occ. eigenvalues --   -0.51123  -0.50832  -0.50772  -0.49824  -0.49258
 Alpha  occ. eigenvalues --   -0.49253  -0.48369  -0.47660  -0.46841  -0.46677
 Alpha  occ. eigenvalues --   -0.46413  -0.46409  -0.45783  -0.43988  -0.43051
 Alpha  occ. eigenvalues --   -0.41489  -0.40904  -0.36737  -0.33198  -0.30439
 Alpha  occ. eigenvalues --   -0.30374  -0.29303  -0.27292  -0.25230  -0.24272
 Alpha virt. eigenvalues --    0.05226   0.06081   0.07656   0.07906   0.08692
 Alpha virt. eigenvalues --    0.10215   0.10390   0.13352   0.14358   0.15117
 Alpha virt. eigenvalues --    0.15408   0.15843   0.15900   0.16379   0.16929

 Mulliken charges:
               1
     1  C    0.115837
     2  C    0.115853
     3  C   -0.290630
     4  C   -0.290629
     5  C    0.285449
     6  H    0.096469
     7  H    0.096469
     8  O   -0.578921
     9  N   -0.235459
    10  C   -0.075644
    11  H    0.115857
    12  H    0.109108
    13  C   -0.075651
    14  H    0.115858
    15  H    0.109107
    16  N   -0.068964
    17  N   -0.068958
    18  C   -0.314238
    19  H    0.113814
    20  H    0.110870
    21  H    0.110844
    22  C   -0.171962
    23  H    0.101798
    24  H    0.107716
    25  H    0.112498
    26  C   -0.157986
    27  H    0.099454
    28  H    0.102930
    29  H    0.120732
    30  C   -0.171963
    31  H    0.107715
    32  H    0.101791
    33  H    0.112498
    34  C   -0.157975
    35  H    0.102933
    36  H    0.099453
    37  H    0.120725
    38  H    0.062442
    39  Rh  -0.189237
 Sum of Mulliken charges =  -0.00000

 Dipole moment (field-independent basis, Debye):
    X=            -15.2715    Y=              0.0001    Z=              0.0051  Tot=             15.2715
 Quadrupole moment (field-independent basis, Debye-Ang):
   XX=           -172.0725   YY=            -89.5108   ZZ=           -117.3358
   XY=             -0.0015   XZ=             -6.1611   YZ=              0.0001

  Exact polarizability:     342.254       0.001     278.005      11.123      -0.000     205.441
 Approx polarizability:     267.931      -0.000     226.022       9.516       0.001     192.369

                      1                      2                      3
                      A                      A                      A
 Frequencies --     49.4584                60.0291                62.6924
 Red. masses --      4.3194                 3.0556                 3.7454
 Frc consts  --      0.0062                 0.0065                 0.0087
 IR Inten    --      2.6856                 1.2081                 1.7638

                      4                      5                      6
                      A                      A                      A
 Frequencies --    108.2359               141.9029               170.1674
 Red. masses --      4.1948                 2.9017                 3.7273
 Frc consts  --      0.0290                 0.0344                 0.0636
 IR Inten    --     12.5519                 0.1453                 1.7037

                      7                      8                      9
                      A                      A                      A
 Frequencies --    184.8734               190.9014               203.0140
 Red. masses --      2.6389                 3.9433                 1.5336
 Frc consts  --      0.0531                 0.0847                 0.0372
 IR Inten    --      1.1515                 0.9348                 1.9957

                     10                     11                     12
                      A                      A                      A
 Frequencies --    212.0366               221.9184               244.0183
 Red. masses --      1.6527                 4.7795                 3.2720
 Frc consts  --      0.0438                 0.1387                 0.1148
 IR Inten    --      1.8045                 6.1890                 2.0160

                     13                     14                     15
                      A                      A                      A
 Frequencies --    254.4387               265.4427               266.2724
 Red. masses --      3.4607                 2.7164                 2.8246
 Frc consts  --      0.1320                 0.1128                 0.1180
 IR Inten    --      0.8452                 0.7013                 1.6328

                     16                     17                     18
                      A                      A                      A
 Frequencies --    280.9334               283.4881               286.9464
 Red. masses --      3.7733                 1.1728                 1.2478
 Frc consts  --      0.1755                 0.0555                 0.0605
 IR Inten    --      0.1863                 0.0418                 2.6472

                     19                     20                     21
                      A                      A                      A
 Frequencies --    303.9363               311.1433               314.3980
 Red. masses --      1.7050                 1.1535                 1.8614
 Frc consts  --      0.0928                 0.0658                 0.1084
 IR Inten    --      0.7118                 0.5910                 1.0828

                     22                     23                     24
                      A                      A                      A
 Frequencies --    363.5102               393.0330               405.0026
 Red. masses --      5.0694                 1.2247                 2.2714
 Frc consts  --      0.3947                 0.1115                 0.2195
 IR Inten    --      8.7174                 5.4776                 0.3391

                     25                     26                     27
                      A                      A                      A
 Frequencies --    405.7895               458.8521               482.2730
 Red. masses --      2.4135                 2.6950                 1.0888
 Frc consts  --      0.2342                 0.3343                 0.1492
 IR Inten    --      3.8707                 2.6405                 1.9278

                     28                     29                     30
                      A                      A                      A
 Frequencies --    484.9488               492.6281               501.4192
 Red. masses --      2.6423                 2.6992                 2.6683
 Frc consts  --      0.3661                 0.3859                 0.3953
 IR Inten    --     19.8446                 5.4816                 4.2253

                     31                     32                     33
                      A                      A                      A
 Frequencies --    533.8184               561.3931               609.8684
 Red. masses --      3.6883                 3.3912                 6.9947
 Frc consts  --      0.6192                 0.6297                 1.5328
 IR Inten    --      1.0958                 9.7702                25.6704

                     34                     35                     36
                      A                      A                      A
 Frequencies --    631.2946               697.7814               727.6431
 Red. masses --      3.5382                 5.7029                 2.8303
 Frc consts  --      0.8308                 1.6360                 0.8829
 IR Inten    --      4.5248                 0.0076                 3.7611

                     37                     38                     39
                      A                      A                      A
 Frequencies --    754.3701               852.3416               869.3556
 Red. masses --      3.0330                 1.3884                 2.4702
 Frc consts  --      1.0169                 0.5943                 1.0999
 IR Inten    --     12.7085                 7.8165                61.6624

                     40                     41                     42
                      A                      A                      A
 Frequencies --    891.2922               893.1122               941.8687
 Red. masses --      3.3883                 2.9841                 2.8979
 Frc consts  --      1.5859                 1.4024                 1.5147
 IR Inten    --     22.8607                82.1251                52.3348

                     43                     44                     45
                      A                      A                      A
 Frequencies --    998.5829              1002.2316              1009.0383
 Red. masses --      2.1257                 2.0673                 2.7676
 Frc consts  --      1.2489                 1.2235                 1.6602
 IR Inten    --     18.4949                25.8816                 5.1525

                     46                     47                     48
                      A                      A                      A
 Frequencies --   1024.0373              1052.4486              1054.7201
 Red. masses --      2.4397                 1.9094                 1.5903
 Frc consts  --      1.5074                 1.2461                 1.0423
 IR Inten    --     81.6663                11.2815                18.0528

                     49                     50                     51
                      A                      A                      A
 Frequencies --   1057.3729              1113.1365              1129.7233
 Red. masses --      2.4803                 4.7249                 1.2700
 Frc consts  --      1.6339                 3.4494                 0.9550
 IR Inten    --      6.7937                36.0170                 1.1689

                     52                     53                     54
                      A                      A                      A
 Frequencies --   1132.4266              1180.5500              1183.8188
 Red. masses --      1.2701                 1.4688                 1.4594
 Frc consts  --      0.9596                 1.2061                 1.2050
 IR Inten    --      4.0338                 0.0621                18.2828

                     55                     56                     57
                      A                      A                      A
 Frequencies --   1210.5260              1213.4299              1219.9764
 Red. masses --      1.6496                 1.8472                 1.9327
 Frc consts  --      1.4243                 1.6025                 1.6948
 IR Inten    --      0.8182                17.8504                 6.7563

                     58                     59                     60
                      A                      A                      A
 Frequencies --   1224.5120              1237.9629              1260.6615
 Red. masses --      1.6336                 1.1831                 5.6323
 Frc consts  --      1.4432                 1.0683                 5.2739
 IR Inten    --     17.4676                17.4616                 1.5873

                     61                     62                     63
                      A                      A                      A
 Frequencies --   1284.3709              1287.7236              1320.8998
 Red. masses --      2.1523                 2.1292                 1.4066
 Frc consts  --      2.0918                 2.0803                 1.4460
 IR Inten    --      1.5536                 3.9606                 1.2175

                     64                     65                     66
                      A                      A                      A
 Frequencies --   1322.7901              1340.4604              1389.7190
 Red. masses --      1.4992                 1.1596                 1.4435
 Frc consts  --      1.5456                 1.2276                 1.6425
 IR Inten    --     16.7112                60.8386                 3.3647

                     67                     68                     69
                      A                      A                      A
 Frequencies --   1399.3521              1426.6742              1436.3097
 Red. masses --      1.4669                 1.1209                 4.1860
 Frc consts  --      1.6924                 1.3442                 5.0880
 IR Inten    --      8.0054                32.1753               107.0761

                     70                     71                     72
                      A                      A                      A
 Frequencies --   1449.3538              1449.9930              1471.4323
 Red. masses --      1.1575                 1.1595                 1.1556
 Frc consts  --      1.4325                 1.4363                 1.4741
 IR Inten    --      0.0059                11.0241                10.2649

                     73                     74                     75
                      A                      A                      A
 Frequencies --   1473.1677              1484.0968              1484.7450
 Red. masses --      1.1427                 1.0516                 1.0501
 Frc consts  --      1.4612                 1.3647                 1.3639
 IR Inten    --      3.6600                 0.9223                 0.6073

                     76                     77                     78
                      A                      A                      A
 Frequencies --   1485.6743              1487.2174              1493.7329
 Red. masses --      1.0830                 1.0949                 1.0398
 Frc consts  --      1.4084                 1.4268                 1.3670
 IR Inten    --      0.6273                 0.3335                 6.0436

                     79                     80                     81
                      A                      A                      A
 Frequencies --   1500.5751              1501.7585              1506.5033
 Red. masses --      1.0674                 1.0499                 1.0499
 Frc consts  --      1.4161                 1.3950                 1.4038
 IR Inten    --     31.3787                 1.6856                62.2500

                     82                     83                     84
                      A                      A                      A
 Frequencies --   1506.8435              1507.3372              1508.1650
 Red. masses --      1.0459                 1.0493                 1.0473
 Frc consts  --      1.3992                 1.4046                 1.4036
 IR Inten    --     50.3484                 1.6406                 0.7374

                     85                     86                     87
                      A                      A                      A
 Frequencies --   1540.4102              1579.2774              1600.7259
 Red. masses --      7.5745                 6.8599                 9.0911
 Frc consts  --     10.5895                10.0806                13.7247
 IR Inten    --    157.1764                68.0299              1092.2489

                     88                     89                     90
                      A                      A                      A
 Frequencies --   1674.1023              1687.0058              2692.2218
 Red. masses --      4.7509                 1.1104                 1.0639
 Frc consts  --      7.8450                 1.8619                 4.5432
 IR Inten    --    964.8125                 2.9393                56.1008

                     91                     92                     93
                      A                      A                      A
 Frequencies --   3008.3877              3022.2594              3022.4214
 Red. masses --      1.0637                 1.0474                 1.0473
 Frc consts  --      5.6719                 5.6370                 5.6370
 IR Inten    --      4.7861                42.0829                57.8344

                     94                     95                     96
                      A                      A                      A
 Frequencies --   3024.1022              3025.2695              3058.2037
 Red. masses --      1.0477                 1.0479                 1.0614
 Frc consts  --      5.6455                 5.6505                 5.8485
 IR Inten    --    232.5780                13.9224                85.2866

                     97                     98                     99
                      A                      A                      A
 Frequencies --   3058.7453              3112.8893              3113.0951
 Red. masses --      1.0613                 1.1036                 1.1036
 Frc consts  --      5.8501                 6.3005                 6.3013
 IR Inten    --     14.6711                12.1999                11.6650

                    100                    101                    102
                      A                      A                      A
 Frequencies --   3127.4405              3127.5570              3128.7556
 Red. masses --      1.0871                 1.0873                 1.0867
 Frc consts  --      6.2649                 6.2661                 6.2674
 IR Inten    --      3.9684                11.9220                37.8850

                    103                    104                    105
                      A                      A                      A
 Frequencies --   3128.8973              3134.2924              3168.6349
 Red. masses --      1.0865                 1.0750                 1.1060
 Frc consts  --      6.2671                 6.2221                 6.5425
 IR Inten    --     29.4016                15.3101                 8.1986

                    106                    107                    108
                      A                      A                      A
 Frequencies --   3168.6625              3169.7231              3169.8802
 Red. masses --      1.1060                 1.1058                 1.1058
 Frc consts  --      6.5426                 6.5460                 6.5466
 IR Inten    --      0.1895                 2.8973                48.9041

                    109                    110                    111
                      A                      A                      A
 Frequencies --   3189.1781              3206.1407              3207.2137
 Red. masses --      1.1054                 1.0919                 1.0919
 Frc consts  --      6.6243                 6.6128                 6.6171
 IR Inten    --     11.4797                18.1636                15.4998

 - Thermochemistry -
 -------------------
 Temperature   298.150 Kelvin.  Pressure   1.00000 Atm.
 Atom     1 has atomic number  6 and mass  12.00000

 Molecular mass:   327.08109 amu.
 Principal axes and moments of inertia in atomic units:
                           1         2         3
     Eigenvalues --  3371.376834986.129447572.28540
           X            0.99999  -0.00000  -0.00542
           Y            0.00000   1.00000  -0.00000
           Z            0.00542   0.00000   0.99999
 This molecule is an asymmetric top.
 Rotational symmetry number  1.
 Warning -- assumption of classical behavior for rotation
           may cause significant error
 Rotational temperatures (Kelvin)      0.02569     0.01737     0.01144
 Rotational constants (GHZ):           0.53531     0.36195     0.23834
 Zero-point vibrational energy     887254.6 (Joules/Mol)
                                  212.05894 (Kcal/Mol)
 Warning -- explicit consideration of  33 degrees of freedom as
           vibrations may cause significant error
 Vibrational temperatures:     71.16    86.37    90.20   155.73   204.17
          (Kelvin)            244.83   265.99   274.66   292.09   305.07
                              319.29   351.09   366.08   381.91   383.11
                              404.20   407.88   412.85   437.30   447.67
                              452.35   523.01   565.49   582.71   583.84
                              660.19   693.88   697.73   708.78   721.43
                              768.05   807.72   877.46   908.29  1003.95
                             1046.92  1085.37  1226.33  1250.81  1282.37
                             1284.99  1355.14  1436.74  1441.99  1451.78
                             1473.36  1514.24  1517.51  1521.32  1601.56
                             1625.42  1629.31  1698.55  1703.25  1741.68
                             1745.86  1755.27  1761.80  1781.15  1813.81
                             1847.92  1852.75  1900.48  1903.20  1928.62
                             1999.50  2013.36  2052.67  2066.53  2085.30
                             2086.22  2117.06  2119.56  2135.28  2136.22
                             2137.55  2139.77  2149.15  2158.99  2160.70
                             2167.52  2168.01  2168.72  2169.91  2216.31
                             2272.23  2303.09  2408.66  2427.23  3873.51
                             4328.40  4348.36  4348.59  4351.01  4352.69
                             4400.07  4400.85  4478.75  4479.05  4499.69
                             4499.86  4501.58  4501.79  4509.55  4558.96
                             4559.00  4560.52  4560.75  4588.52  4612.92
                             4614.47

 Zero-point correction=                           0.337937 (Hartree/Particle)
 Thermal correction to Energy=                    0.356776
 Thermal correction to Enthalpy=                  0.357721
 Thermal correction to Gibbs Free Energy=         0.292618
 Sum of electronic and zero-point Energies=           -820.356267
 Sum of electronic and thermal Energies=              -820.337428
 Sum of electronic and thermal Enthalpies=            -820.336484
 Sum of electronic and thermal Free Energies=         -820.401587

                     E (Thermal)             CV                S
                      KCal/Mol        Cal/Mol-Kelvin    Cal/Mol-Kelvin
 Total                  223.881             72.760            137.020
 Electronic               0.000              0.000              0.000
 Translational            0.889              2.981             43.250
 Rotational               0.889              2.981             33.209
 Vibrational            222.103             66.798             60.561
 Vibration     1          0.595              1.978              4.839
 Vibration     2          0.597              1.973              4.456
 Vibration     3          0.597              1.972              4.371
 Vibration     4          0.606              1.943              3.300
 Vibration     5          0.615              1.911              2.778
 Vibration     6          0.625              1.879              2.434
 Vibration     7          0.631              1.860              2.279
 Vibration     8          0.634              1.852              2.219
 Vibration     9          0.639              1.836              2.106
 Vibration    10          0.643              1.823              2.026
 Vibration    11          0.648              1.808              1.943
 Vibration    12          0.659              1.773              1.773
 Vibration    13          0.665              1.755              1.700
 Vibration    14          0.671              1.736              1.626
 Vibration    15          0.672              1.735              1.620
 Vibration    16          0.681              1.709              1.528
 Vibration    17          0.682              1.704              1.513
 Vibration    18          0.684              1.698              1.492
 Vibration    19          0.695              1.666              1.395
 Vibration    20          0.700              1.652              1.356
 Vibration    21          0.702              1.646              1.339
 Vibration    22          0.737              1.547              1.107
 Vibration    23          0.760              1.485              0.989
 Vibration    24          0.770              1.459              0.944
 Vibration    25          0.771              1.458              0.942
 Vibration    26          0.817              1.341              0.769
 Vibration    27          0.839              1.289              0.704
 Vibration    28          0.841              1.283              0.697
 Vibration    29          0.848              1.266              0.677
 Vibration    30          0.857              1.247              0.655
 Vibration    31          0.889              1.175              0.579
 Vibration    32          0.917              1.115              0.521
 Vibration    33          0.969              1.011              0.433

                           ! Non-Optimized Parameters !
 Normal termination of Gaussian 16 at Fri Mar  8 11:20:30 2024.
