 Gaussian 16, Revision C.01,
 Gaussian 16:  ES64L-G16RevC.01  3-Jul-2019

 ----------------------------------------------------------
 # wb97xd def2TZVPP SCRF=(solvent=dichloromethane) opt freq
 ----------------------------------------------------------

 ------
 ZRhMeH
 ------
 Symbolic Z-matrix:
 Charge =  0 Multiplicity = 1

 SCF Done:  E(RwB97XD) =  -820.673214439     A.U. after   18 cycles
 SCF Done:  E(RwB97XD) =  -820.678795880     A.U. after   14 cycles
 SCF Done:  E(RwB97XD) =  -820.679321339     A.U. after   14 cycles
 SCF Done:  E(RwB97XD) =  -820.679708791     A.U. after   15 cycles
 SCF Done:  E(RwB97XD) =  -820.679908717     A.U. after   13 cycles
 SCF Done:  E(RwB97XD) =  -820.680224348     A.U. after   14 cycles
 SCF Done:  E(RwB97XD) =  -820.680304601     A.U. after   15 cycles
 SCF Done:  E(RwB97XD) =  -820.680745203     A.U. after   13 cycles
 SCF Done:  E(RwB97XD) =  -820.681077520     A.U. after   15 cycles
 SCF Done:  E(RwB97XD) =  -820.681488961     A.U. after   13 cycles
 SCF Done:  E(RwB97XD) =  -820.681732007     A.U. after   12 cycles
 SCF Done:  E(RwB97XD) =  -820.681750900     A.U. after   11 cycles
 SCF Done:  E(RwB97XD) =  -820.681754881     A.U. after   11 cycles
 SCF Done:  E(RwB97XD) =  -820.681757628     A.U. after   11 cycles
 SCF Done:  E(RwB97XD) =  -820.681758222     A.U. after   10 cycles
 SCF Done:  E(RwB97XD) =  -820.681757996     A.U. after   10 cycles
 SCF Done:  E(RwB97XD) =  -820.681757840     A.U. after    8 cycles
 SCF Done:  E(RwB97XD) =  -820.681758259     A.U. after    9 cycles
 SCF Done:  E(RwB97XD) =  -820.681757888     A.U. after    9 cycles
 Optimization completed.
    -- Stationary point found.
 Normal termination of Gaussian 16 at Fri Mar  8 03:29:34 2024.

 ----------------------------------------------------------------------
 #N Geom=AllCheck Guess=TCheck SCRF=Check GenChk RwB97XD/def2TZVPP Freq
 ----------------------------------------------------------------------

 Structure from the checkpoint file:  "ZRhMeH.chk"
 ------
 ZRhMeH
 ------
 Charge =  0 Multiplicity = 1

                         Standard orientation:
 ---------------------------------------------------------------------
 Center     Atomic      Atomic             Coordinates (Angstroms)
 Number     Number       Type             X           Y           Z
 ---------------------------------------------------------------------
      1          6           0       -1.537607   -1.166702   -0.312525
      2          6           0       -1.537607    1.166702   -0.312525
      3          6           0       -2.867251   -1.220655   -0.015435
      4          6           0       -2.867251    1.220656   -0.015435
      5          6           0       -3.628155    0.000000    0.150028
      6          1           0       -3.374041   -2.168620    0.107838
      7          1           0       -3.374041    2.168620    0.107838
      8          8           0       -4.845510    0.000000    0.427953
      9          7           0       -0.894668   -0.000000   -0.465185
     10          6           0       -0.617468   -2.334930   -0.564046
     11          1           0       -0.502512   -2.440844   -1.643180
     12          1           0       -1.023176   -3.271319   -0.175321
     13          6           0       -0.617467    2.334930   -0.564046
     14          1           0       -0.502511    2.440844   -1.643180
     15          1           0       -1.023176    3.271319   -0.175321
     16          7           0        0.752106   -2.102336   -0.001550
     17          7           0        0.752106    2.102336   -0.001550
     18          6           0        3.089967   -0.000000    0.511911
     19          1           0        3.074647    0.000004    1.612209
     20          1           0        3.665363   -0.878151    0.201571
     21          1           0        3.665366    0.878147    0.201565
     22          6           0        1.708304   -2.992885   -0.675314
     23          1           0        2.691556   -2.859251   -0.233033
     24          1           0        1.404608   -4.038524   -0.567007
     25          1           0        1.756964   -2.735851   -1.730112
     26          6           0        0.738083   -2.404342    1.442866
     27          1           0        0.460826   -3.447931    1.615082
     28          1           0        1.726086   -2.220112    1.857578
     29          1           0        0.013557   -1.763737    1.945754
     30          6           0        1.708304    2.992885   -0.675314
     31          1           0        1.404609    4.038524   -0.567007
     32          1           0        2.691556    2.859251   -0.233033
     33          1           0        1.756964    2.735850   -1.730113
     34          6           0        0.738083    2.404343    1.442866
     35          1           0        1.726086    2.220113    1.857578
     36          1           0        0.460827    3.447932    1.615081
     37          1           0        0.013557    1.763738    1.945754
     38          1           0        1.703283   -0.000000   -1.504683
     39         45           0        1.116028   -0.000000   -0.121993
 ---------------------------------------------------------------------

 SCF Done:  E(RwB97XD) =  -820.681757888     A.U. after    1 cycles

 The electronic state is 1-A.
 Alpha  occ. eigenvalues --  -19.17805 -14.50286 -14.50285 -14.43704 -10.33780
 Alpha  occ. eigenvalues --  -10.33162 -10.33162 -10.32947 -10.32945 -10.31992
 Alpha  occ. eigenvalues --  -10.31992 -10.31541 -10.31541 -10.26899 -10.26899
 Alpha  occ. eigenvalues --  -10.23811  -3.33251  -2.08530  -2.08362  -2.07554
 Alpha  occ. eigenvalues --   -1.08710  -1.07651  -1.06512  -1.04393  -0.90416
 Alpha  occ. eigenvalues --   -0.85847  -0.83756  -0.82862  -0.82791  -0.80199
 Alpha  occ. eigenvalues --   -0.74306  -0.73147  -0.72549  -0.70360  -0.66244
 Alpha  occ. eigenvalues --   -0.61278  -0.60392  -0.59277  -0.58808  -0.57954
 Alpha  occ. eigenvalues --   -0.57429  -0.56659  -0.56268  -0.52374  -0.51820
 Alpha  occ. eigenvalues --   -0.50939  -0.50164  -0.49553  -0.48839  -0.48094
 Alpha  occ. eigenvalues --   -0.47772  -0.47299  -0.47040  -0.46931  -0.46479
 Alpha  occ. eigenvalues --   -0.45475  -0.44870  -0.44100  -0.43563  -0.43149
 Alpha  occ. eigenvalues --   -0.42300  -0.40939  -0.37757  -0.33762  -0.32610
 Alpha  occ. eigenvalues --   -0.32500  -0.32038  -0.30876  -0.30434  -0.26823
 Alpha virt. eigenvalues --    0.02220   0.05786   0.06093   0.07545   0.08338
 Alpha virt. eigenvalues --    0.10242   0.10388   0.11705   0.13692   0.14253
 Alpha virt. eigenvalues --    0.15413   0.15787   0.16221   0.16536   0.16813

 Mulliken charges:
               1
     1  C    0.080059
     2  C    0.080059
     3  C   -0.277861
     4  C   -0.277861
     5  C    0.292000
     6  H    0.098986
     7  H    0.098986
     8  O   -0.570456
     9  N   -0.237425
    10  C   -0.043967
    11  H    0.118303
    12  H    0.111908
    13  C   -0.043967
    14  H    0.118303
    15  H    0.111908
    16  N   -0.021157
    17  N   -0.021157
    18  C   -0.637886
    19  H    0.093469
    20  H    0.082726
    21  H    0.082726
    22  C   -0.166182
    23  H    0.106417
    24  H    0.109988
    25  H    0.108315
    26  C   -0.176988
    27  H    0.106256
    28  H    0.119306
    29  H    0.120837
    30  C   -0.166182
    31  H    0.109988
    32  H    0.106417
    33  H    0.108315
    34  C   -0.176988
    35  H    0.119306
    36  H    0.106256
    37  H    0.120837
    38  H   -0.073724
    39  Rh   0.180130
 Sum of Mulliken charges =  -0.00000

 Dipole moment (field-independent basis, Debye):
    X=             11.0026    Y=             -0.0000    Z=              0.1318  Tot=             11.0034
 Quadrupole moment (field-independent basis, Debye-Ang):
   XX=           -186.5436   YY=            -86.8776   ZZ=           -115.7780
   XY=              0.0000   XZ=              5.2664   YZ=             -0.0000

  Exact polarizability:     344.723       0.000     277.892      -6.319       0.000     198.331
 Approx polarizability:     268.280      -0.000     227.167     -10.013       0.000     191.381

                      1                      2                      3
                      A                      A                      A
 Frequencies --     53.1607                71.6816                84.2167
 Red. masses --      3.6206                 2.7468                 3.6875
 Frc consts  --      0.0060                 0.0083                 0.0154
 IR Inten    --      9.5428                 1.1178                 1.8107

                      4                      5                      6
                      A                      A                      A
 Frequencies --    116.1963               129.8019               180.0094
 Red. masses --      1.1027                 3.5633                 4.0698
 Frc consts  --      0.0088                 0.0354                 0.0777
 IR Inten    --      0.1913                 5.8496                 0.3524

                      7                      8                      9
                      A                      A                      A
 Frequencies --    194.3264               195.8611               207.3852
 Red. masses --      3.0752                 3.9809                 2.6783
 Frc consts  --      0.0684                 0.0900                 0.0679
 IR Inten    --      0.9688                 1.4217                 0.0000

                     10                     11                     12
                      A                      A                      A
 Frequencies --    219.1766               241.9742               254.2054
 Red. masses --      3.6218                 4.2048                 3.3594
 Frc consts  --      0.1025                 0.1451                 0.1279
 IR Inten    --      3.8780                 3.5306                 5.3890

                     13                     14                     15
                      A                      A                      A
 Frequencies --    266.3148               280.3911               284.4880
 Red. masses --      2.8738                 3.4432                 1.2597
 Frc consts  --      0.1201                 0.1595                 0.0601
 IR Inten    --      2.9527                 2.8198                 0.3922

                     16                     17                     18
                      A                      A                      A
 Frequencies --    290.7440               294.3365               295.8564
 Red. masses --      3.1553                 1.3215                 2.5247
 Frc consts  --      0.1572                 0.0675                 0.1302
 IR Inten    --      1.0536                 2.1654                 3.1162

                     19                     20                     21
                      A                      A                      A
 Frequencies --    332.3774               339.2325               359.5824
 Red. masses --      1.1398                 1.1409                 4.1221
 Frc consts  --      0.0742                 0.0774                 0.3140
 IR Inten    --      4.8819                 4.0259                31.5950

                     22                     23                     24
                      A                      A                      A
 Frequencies --    375.9437               404.8168               410.1717
 Red. masses --      1.0880                 2.4028                 2.2051
 Frc consts  --      0.0906                 0.2320                 0.2186
 IR Inten    --      1.8413                 2.5497                 0.5930

                     25                     26                     27
                      A                      A                      A
 Frequencies --    460.9294               486.9740               487.3315
 Red. masses --      2.7081                 2.4828                 3.0003
 Frc consts  --      0.3390                 0.3469                 0.4198
 IR Inten    --      5.6053                27.6338                42.6010

                     28                     29                     30
                      A                      A                      A
 Frequencies --    509.7888               522.1521               532.0680
 Red. masses --      2.6964                 3.9985                 3.5284
 Frc consts  --      0.4129                 0.6423                 0.5885
 IR Inten    --     10.6134                39.9422                 1.4157

                     31                     32                     33
                      A                      A                      A
 Frequencies --    565.3395               593.1003               620.0355
 Red. masses --      3.1692                 7.4937                 1.1230
 Frc consts  --      0.5968                 1.5531                 0.2544
 IR Inten    --      8.3961                 5.4714                 4.0124

                     34                     35                     36
                      A                      A                      A
 Frequencies --    637.5551               696.9849               725.1608
 Red. masses --      3.3533                 5.4184                 1.3343
 Frc consts  --      0.8031                 1.5508                 0.4134
 IR Inten    --      1.4565                 0.5613                11.8025

                     37                     38                     39
                      A                      A                      A
 Frequencies --    732.1775               770.0066               777.2120
 Red. masses --      2.7327                 2.9196                 1.2557
 Frc consts  --      0.8631                 1.0199                 0.4469
 IR Inten    --      0.3215                 3.6526                 1.7225

                     40                     41                     42
                      A                      A                      A
 Frequencies --    853.8471               869.3434               890.0409
 Red. masses --      1.4847                 2.6069                 2.6678
 Frc consts  --      0.6378                 1.1608                 1.2451
 IR Inten    --     18.4835                60.4616                75.0325

                     43                     44                     45
                      A                      A                      A
 Frequencies --    892.1620               933.1139               994.7257
 Red. masses --      3.1655                 2.9366                 2.1854
 Frc consts  --      1.4845                 1.5065                 1.2741
 IR Inten    --     30.8481                56.9675               110.1979

                     46                     47                     48
                      A                      A                      A
 Frequencies --    995.7317              1002.5432              1020.5084
 Red. masses --      2.0281                 3.1469                 2.4577
 Frc consts  --      1.1847                 1.8635                 1.5080
 IR Inten    --      8.3940                15.7247                39.5097

                     49                     50                     51
                      A                      A                      A
 Frequencies --   1054.5340              1062.5358              1063.8215
 Red. masses --      3.1964                 1.6561                 1.6480
 Frc consts  --      2.0943                 1.1016                 1.0989
 IR Inten    --     20.1864                 3.9316                24.9923

                     52                     53                     54
                      A                      A                      A
 Frequencies --   1088.5931              1135.8451              1137.4170
 Red. masses --      4.2983                 1.2478                 1.2496
 Frc consts  --      3.0011                 0.9485                 0.9525
 IR Inten    --    140.2661                 0.0147                 1.3292

                     55                     56                     57
                      A                      A                      A
 Frequencies --   1181.4058              1184.1472              1211.5411
 Red. masses --      1.4174                 1.4367                 1.8684
 Frc consts  --      1.1656                 1.1870                 1.6158
 IR Inten    --      0.3021                14.1946                 5.4983

                     58                     59                     60
                      A                      A                      A
 Frequencies --   1213.5911              1228.6381              1232.1658
 Red. masses --      1.5731                 1.6297                 1.7623
 Frc consts  --      1.3650                 1.4494                 1.5764
 IR Inten    --      0.2576                15.5748                15.1393

                     61                     62                     63
                      A                      A                      A
 Frequencies --   1233.9929              1261.2998              1283.9585
 Red. masses --      1.3687                 6.0628                 1.9845
 Frc consts  --      1.2279                 5.6828                 1.9275
 IR Inten    --      1.0316                 0.1901                 2.9636

                     64                     65                     66
                      A                      A                      A
 Frequencies --   1287.7951              1321.4174              1322.1851
 Red. masses --      2.0066                 1.3936                 1.4929
 Frc consts  --      1.9607                 1.4338                 1.5377
 IR Inten    --      0.3851                 1.8477                13.9304

                     67                     68                     69
                      A                      A                      A
 Frequencies --   1390.7131              1399.2401              1432.9676
 Red. masses --      1.4295                 1.4434                 4.0683
 Frc consts  --      1.6290                 1.6650                 4.9220
 IR Inten    --      2.8864                 7.0679               171.1140

                     70                     71                     72
                      A                      A                      A
 Frequencies --   1450.8824              1454.2389              1458.5296
 Red. masses --      1.0919                 1.1460                 1.1214
 Frc consts  --      1.3543                 1.4280                 1.4055
 IR Inten    --      1.5310                 2.6196                 0.3074

                     73                     74                     75
                      A                      A                      A
 Frequencies --   1471.2276              1474.6121              1475.8856
 Red. masses --      1.0815                 1.1304                 1.1088
 Frc consts  --      1.3793                 1.4483                 1.4230
 IR Inten    --     11.5935                 8.4495                 1.3624

                     76                     77                     78
                      A                      A                      A
 Frequencies --   1489.9497              1491.5789              1494.2117
 Red. masses --      1.0842                 1.0578                 1.0704
 Frc consts  --      1.4180                 1.3866                 1.4080
 IR Inten    --      1.4797                 0.9402                 0.0888

                     79                     80                     81
                      A                      A                      A
 Frequencies --   1496.9071              1501.9534              1503.7219
 Red. masses --      1.1097                 1.0631                 1.0550
 Frc consts  --      1.4650                 1.4130                 1.4055
 IR Inten    --     17.6490                 5.3899                28.5765

                     82                     83                     84
                      A                      A                      A
 Frequencies --   1509.7099              1510.8018              1529.3627
 Red. masses --      1.0451                 1.0447                 1.0688
 Frc consts  --      1.4035                 1.4050                 1.4729
 IR Inten    --     56.3089                 1.2694                 0.0089

                     85                     86                     87
                      A                      A                      A
 Frequencies --   1530.6722              1551.9961              1576.3520
 Red. masses --      1.0581                 7.3622                 6.8666
 Frc consts  --      1.4606                10.4482                10.0531
 IR Inten    --     38.3983               162.5485                64.8981

                     88                     89                     90
                      A                      A                      A
 Frequencies --   1607.4352              1669.6524              2299.7655
 Red. masses --      9.3809                 7.5066                 1.0180
 Frc consts  --     14.2810                12.3296                 3.1721
 IR Inten    --    954.9111               914.3189               113.0610

                     91                     92                     93
                      A                      A                      A
 Frequencies --   2970.2864              3038.4379              3038.8763
 Red. masses --      1.0428                 1.0458                 1.0459
 Frc consts  --      5.4207                 5.6886                 5.6907
 IR Inten    --    112.4544               139.0316                 9.0421

                     94                     95                     96
                      A                      A                      A
 Frequencies --   3040.6910              3041.4065              3047.4747
 Red. masses --      1.0395                 1.0404                 1.0867
 Frc consts  --      5.6625                 5.6703                 5.9463
 IR Inten    --     46.1414                39.7896               117.0826

                     97                     98                     99
                      A                      A                      A
 Frequencies --   3067.7967              3068.4348              3073.0552
 Red. masses --      1.0605                 1.0603                 1.1010
 Frc consts  --      5.8803                 5.8821                 6.1258
 IR Inten    --     78.4898                11.1736                99.4637

                    100                    101                    102
                      A                      A                      A
 Frequencies --   3122.2866              3122.5012              3124.1444
 Red. masses --      1.1050                 1.1050                 1.0981
 Frc consts  --      6.3471                 6.3478                 6.3146
 IR Inten    --     11.1929                12.8964                53.4874

                    103                    104                    105
                      A                      A                      A
 Frequencies --   3124.7281              3141.5261              3141.6146
 Red. masses --      1.0978                 1.0897                 1.0896
 Frc consts  --      6.3155                 6.3361                 6.3364
 IR Inten    --      0.8598                 6.7298                21.2007

                    106                    107                    108
                      A                      A                      A
 Frequencies --   3165.2073              3165.2649              3182.1231
 Red. masses --      1.1040                 1.1041                 1.1056
 Frc consts  --      6.5168                 6.5172                 6.5961
 IR Inten    --      0.8135                19.5583                 1.3477

                    109                    110                    111
                      A                      A                      A
 Frequencies --   3182.1544              3208.0499              3209.0502
 Red. masses --      1.1056                 1.0920                 1.0921
 Frc consts  --      6.5963                 6.6216                 6.6264
 IR Inten    --     25.8897                17.0991                15.1021

 - Thermochemistry -
 -------------------
 Temperature   298.150 Kelvin.  Pressure   1.00000 Atm.
 Atom     1 has atomic number  6 and mass  12.00000

 Molecular mass:   327.08109 amu.
 Principal axes and moments of inertia in atomic units:
                           1         2         3
     Eigenvalues --  3374.121744873.747827398.98458
           X            0.99999   0.00000   0.00528
           Y           -0.00000   1.00000   0.00000
           Z           -0.00528  -0.00000   0.99999
 This molecule is an asymmetric top.
 Rotational symmetry number  1.
 Warning -- assumption of classical behavior for rotation
           may cause significant error
 Rotational temperatures (Kelvin)      0.02567     0.01777     0.01171
 Rotational constants (GHZ):           0.53488     0.37030     0.24392
 Zero-point vibrational energy     879275.9 (Joules/Mol)
                                  210.15198 (Kcal/Mol)
 Warning -- explicit consideration of  33 degrees of freedom as
           vibrations may cause significant error
 Vibrational temperatures:     76.49   103.13   121.17   167.18   186.76
          (Kelvin)            258.99   279.59   281.80   298.38   315.35
                              348.15   365.74   383.17   403.42   409.31
                              418.32   423.48   425.67   478.22   488.08
                              517.36   540.90   582.44   590.15   663.17
                              700.65   701.16   733.47   751.26   765.53
                              813.40   853.34   892.09   917.30  1002.81
                             1043.34  1053.44  1107.87  1118.23  1228.50
                             1250.79  1280.57  1283.62  1342.54  1431.19
                             1432.64  1442.44  1468.28  1517.24  1528.75
                             1530.60  1566.24  1634.23  1636.49  1699.78
                             1703.72  1743.14  1746.09  1767.74  1772.81
                             1775.44  1814.73  1847.33  1852.85  1901.22
                             1902.33  2000.93  2013.19  2061.72  2087.50
                             2092.33  2098.50  2116.77  2121.64  2123.47
                             2143.71  2146.05  2149.84  2153.72  2160.98
                             2163.52  2172.14  2173.71  2200.41  2202.30
                             2232.98  2268.02  2312.74  2402.26  3308.85
                             4273.58  4371.63  4372.27  4374.88  4375.91
                             4384.64  4413.88  4414.79  4421.44  4492.27
                             4492.58  4494.95  4495.79  4519.96  4520.08
                             4554.03  4554.11  4578.37  4578.41  4615.67
                             4617.11

 Zero-point correction=                           0.334898 (Hartree/Particle)
 Thermal correction to Energy=                    0.353309
 Thermal correction to Enthalpy=                  0.354253
 Thermal correction to Gibbs Free Energy=         0.290528
 Sum of electronic and zero-point Energies=           -820.346859
 Sum of electronic and thermal Energies=              -820.328449
 Sum of electronic and thermal Enthalpies=            -820.327505
 Sum of electronic and thermal Free Energies=         -820.391230

                     E (Thermal)             CV                S
                      KCal/Mol        Cal/Mol-Kelvin    Cal/Mol-Kelvin
 Total                  221.705             72.959            134.120
 Electronic               0.000              0.000              0.000
 Translational            0.889              2.981             43.250
 Rotational               0.889              2.981             33.164
 Vibrational            219.927             66.997             57.706
 Vibration     1          0.596              1.976              4.696
 Vibration     2          0.598              1.968              4.107
 Vibration     3          0.601              1.960              3.790
 Vibration     4          0.608              1.936              3.163
 Vibration     5          0.612              1.923              2.949
 Vibration     6          0.629              1.867              2.328
 Vibration     7          0.635              1.848              2.186
 Vibration     8          0.636              1.846              2.172
 Vibration     9          0.641              1.829              2.067
 Vibration    10          0.647              1.812              1.966
 Vibration    11          0.658              1.776              1.788
 Vibration    12          0.665              1.756              1.701
 Vibration    13          0.672              1.735              1.620
 Vibration    14          0.680              1.710              1.531
 Vibration    15          0.683              1.702              1.507
 Vibration    16          0.687              1.691              1.470
 Vibration    17          0.689              1.684              1.449
 Vibration    18          0.690              1.681              1.440
 Vibration    19          0.714              1.611              1.249
 Vibration    20          0.719              1.597              1.216
 Vibration    21          0.734              1.556              1.124
 Vibration    22          0.747              1.521              1.055
 Vibration    23          0.770              1.460              0.945
 Vibration    24          0.774              1.448              0.926
 Vibration    25          0.819              1.337              0.763
 Vibration    26          0.843              1.279              0.692
 Vibration    27          0.843              1.278              0.691
 Vibration    28          0.865              1.228              0.634
 Vibration    29          0.877              1.201              0.605
 Vibration    30          0.887              1.179              0.583
 Vibration    31          0.921              1.106              0.513
 Vibration    32          0.951              1.046              0.462
 Vibration    33          0.980              0.990              0.416

 Optimization completed.
    -- Stationary point found.
 Normal termination of Gaussian 16 at Fri Mar  8 16:31:13 2024.
