 Gaussian 16, Revision C.01,
 Gaussian 16:  ES64L-G16RevC.01  3-Jul-2019

 ---------------------------------
 # PBEPBE GenECP Pop=NBO Popt freq
 ---------------------------------

 ----------------------
 trans-(F)Ir(PH3)2(NH3)
 ----------------------
 Symbolic Z-matrix:
 Charge =  0 Multiplicity = 1

 SCF Done:  E(RPBE-PBE) =  -946.745315181     A.U. after   16 cycles
 SCF Done:  E(RPBE-PBE) =  -946.745316316     A.U. after    8 cycles
 SCF Done:  E(RPBE-PBE) =  -946.745316306     A.U. after    9 cycles
 SCF Done:  E(RPBE-PBE) =  -946.745316548     A.U. after    7 cycles
 Optimization completed.
    -- Stationary point found.
 Normal termination of Gaussian 16 at Thu May 30 17:06:43 2024.

 -------------------------------------------------------------------
 #N Geom=AllCheck Guess=TCheck SCRF=Check GenChk RPBEPBE/GenECP Freq
 -------------------------------------------------------------------

 Structure from the checkpoint file:  "trans-H_Ir_PH3_2_NH3.chk"
 ----------------------
 trans-(F)Ir(PH3)2(NH3)
 ----------------------
 Charge =  0 Multiplicity = 1

                         Standard orientation:
 ---------------------------------------------------------------------
 Center     Atomic      Atomic             Coordinates (Angstroms)
 Number     Number       Type             X           Y           Z
 ---------------------------------------------------------------------
      1         77           0       -0.000754   -0.032275    0.000002
      2          9           0        0.001541   -2.066315   -0.000001
      3         15           0       -2.265439   -0.034830    0.000002
      4          7           0       -0.003162    2.102139    0.000005
      5         15           0        2.269592   -0.029714    0.000001
      6          1           0       -2.995518   -0.634731    1.074516
      7          1           0       -2.958968    1.224001   -0.001651
      8          1           0       -2.995439   -0.637496   -1.072997
      9          1           0        2.988278   -0.644270   -1.074118
     10          1           0        2.988627    1.212009    0.002192
     11          1           0        2.988279   -0.648174    1.071857
     12          1           0        0.468693    2.480921    0.830402
     13          1           0        0.468927    2.480907   -0.830265
     14          1           0       -0.948864    2.502007   -0.000141
 ---------------------------------------------------------------------

 SCF Done:  E(RPBE-PBE) =  -946.745316548     A.U. after    1 cycles

 The electronic state is 1-A.
 Alpha  occ. eigenvalues --  -76.31669 -76.31621 -24.11831 -14.05297  -6.32991
 Alpha  occ. eigenvalues --   -6.32943  -4.54663  -4.54609  -4.54575  -4.54532
 Alpha  occ. eigenvalues --   -4.54271  -4.54225  -3.50021  -1.89399  -1.89013
 Alpha  occ. eigenvalues --   -1.84623  -0.92251  -0.85347  -0.61196  -0.60346
 Alpha  occ. eigenvalues --   -0.48847  -0.48606  -0.38743  -0.36798  -0.36743
 Alpha  occ. eigenvalues --   -0.36307  -0.36188  -0.35960  -0.28062  -0.27879
 Alpha  occ. eigenvalues --   -0.25044  -0.24398  -0.18438  -0.16973  -0.14542
 Alpha  occ. eigenvalues --   -0.13315
 Alpha virt. eigenvalues --   -0.05777  -0.04265  -0.03971  -0.02426  -0.01867
 Alpha virt. eigenvalues --    0.00540   0.01343   0.01376   0.01916   0.03255
 Alpha virt. eigenvalues --    0.03277   0.03736   0.04770   0.05217   0.05228

 Mulliken charges:
               1
     1  Ir   0.237662
     2  F   -0.374957
     3  P   -0.157930
     4  N   -0.622107
     5  P   -0.186567
     6  H    0.063352
     7  H   -0.003144
     8  H    0.063409
     9  H    0.062457
    10  H    0.014931
    11  H    0.062535
    12  H    0.284759
    13  H    0.284777
    14  H    0.270820
 Sum of Mulliken charges =  -0.00000

 Dipole moment (field-independent basis, Debye):
    X=              0.0399    Y=              7.4082    Z=             -0.0001  Tot=              7.4083
 Quadrupole moment (field-independent basis, Debye-Ang):
   XX=            -53.1892   YY=            -63.7016   ZZ=            -68.0126
   XY=              0.1895   XZ=              0.0003   YZ=             -0.0002

  Exact polarizability:     173.818      -0.281     105.780      -0.000      -0.000      95.035
 Approx polarizability:     319.943      -0.490     197.262       0.000       0.000     197.738

 Summary of Natural Population Analysis:

                                       Natural Population
                Natural  -----------------------------------------------
    Atom  No    Charge         Core      Valence    Rydberg      Total
 -----------------------------------------------------------------------
     Ir    1   -0.47071     67.98896     9.44342    0.03832    77.47071
      F    2   -0.55949      1.99998     7.55574    0.00378     9.55949
      P    3    0.29799      9.99721     4.65688    0.04792    14.70201
      N    4   -0.87303      1.99954     5.85362    0.01987     7.87303
      P    5    0.29074      9.99725     4.66505    0.04696    14.70926
      H    6    0.03541      0.00000     0.95982    0.00477     0.96459
      H    7   -0.00495      0.00000     1.00039    0.00457     1.00495
      H    8    0.03546      0.00000     0.95976    0.00477     0.96454
      H    9    0.03576      0.00000     0.95949    0.00475     0.96424
      H   10    0.00304      0.00000     0.99282    0.00415     0.99696
      H   11    0.03585      0.00000     0.95940    0.00475     0.96415
      H   12    0.39230      0.00000     0.60467    0.00304     0.60770
      H   13    0.39229      0.00000     0.60467    0.00304     0.60771
      H   14    0.38936      0.00000     0.60830    0.00235     0.61064
 =======================================================================
   * Total *    0.00000     91.98294    39.82404    0.19302   132.00000

 ******    1 imaginary frequencies (negative Signs) ******

                      1                      2                      3
                      A                      A                      A
 Frequencies --    -48.6002                45.5087                97.6479
 Red. masses --      1.0824                 3.5766                 3.7600
 Frc consts  --      0.0015                 0.0044                 0.0211
 IR Inten    --      0.3350                 3.3695                 2.9198

                      4                      5                      6
                      A                      A                      A
 Frequencies --    100.9914               115.3804               128.1951
 Red. masses --      1.0803                 7.0814                 1.2309
 Frc consts  --      0.0065                 0.0555                 0.0119
 IR Inten    --      0.0020                 0.0334                 0.3795

                      7                      8                      9
                      A                      A                      A
 Frequencies --    185.4867               209.7614               301.0043
 Red. masses --      2.5223                 3.5521                10.5781
 Frc consts  --      0.0511                 0.0921                 0.5647
 IR Inten    --      5.8787                 6.1834                38.6504

                     10                     11                     12
                      A                      A                      A
 Frequencies --    369.4342               429.5810               447.1422
 Red. masses --      8.2483                 5.0502                 1.1168
 Frc consts  --      0.6633                 0.5491                 0.1316
 IR Inten    --      0.3014                 1.7295                 0.0000

                     13                     14                     15
                      A                      A                      A
 Frequencies --    492.8811               495.5775               542.2688
 Red. masses --      1.2081                14.8717                 1.2098
 Frc consts  --      0.1729                 2.1520                 0.2096
 IR Inten    --      6.1045                73.0751                 1.7302

                     16                     17                     18
                      A                      A                      A
 Frequencies --    575.1403               679.0103               719.8041
 Red. masses --      1.3007                 1.1760                 1.1547
 Frc consts  --      0.2535                 0.3194                 0.3525
 IR Inten    --     12.9734                 0.3562                 0.1170

                     19                     20                     21
                      A                      A                      A
 Frequencies --    982.8124              1011.2914              1063.0276
 Red. masses --      1.0874                 1.0828                 1.0259
 Frc consts  --      0.6189                 0.6524                 0.6831
 IR Inten    --    456.3249                 6.3177                 3.1201

                     22                     23                     24
                      A                      A                      A
 Frequencies --   1070.8805              1086.3243              1088.3110
 Red. masses --      1.0231                 1.0246                 1.0234
 Frc consts  --      0.6913                 0.7124                 0.7142
 IR Inten    --      9.0485                 2.4990                 4.9988

                     25                     26                     27
                      A                      A                      A
 Frequencies --   1234.9581              1601.6810              1608.5274
 Red. masses --      1.1524                 1.0610                 1.0589
 Frc consts  --      1.0356                 1.6037                 1.6142
 IR Inten    --     79.9971                20.4114                18.9024

                     28                     29                     30
                      A                      A                      A
 Frequencies --   2294.7110              2312.4499              2328.2839
 Red. masses --      1.0367                 1.0373                 1.0426
 Frc consts  --      3.2162                 3.2681                 3.3299
 IR Inten    --    128.8623                96.8434                 2.6251

                     31                     32                     33
                      A                      A                      A
 Frequencies --   2329.7695              2334.4443              2340.5765
 Red. masses --      1.0408                 1.0323                 1.0321
 Frc consts  --      3.3283                 3.3146                 3.3313
 IR Inten    --     37.6024               302.1425                18.3391

                     34                     35                     36
                      A                      A                      A
 Frequencies --   3332.4862              3412.7139              3427.9849
 Red. masses --      1.0269                 1.0911                 1.0899
 Frc consts  --      6.7195                 7.4874                 7.5458
 IR Inten    --     21.3787                16.2041                 7.1406

 - Thermochemistry -
 -------------------
 Temperature   298.150 Kelvin.  Pressure   1.00000 Atm.
 Atom     1 has atomic number 77 and mass 192.96330

 Molecular mass:   296.98273 amu.
 Principal axes and moments of inertia in atomic units:
                           1         2         3
     Eigenvalues --   615.212141356.317531928.43205
           X            1.00000  -0.00051   0.00000
           Y            0.00051   1.00000  -0.00000
           Z           -0.00000   0.00000   1.00000
 This molecule is an asymmetric top.
 Rotational symmetry number  1.
 Warning -- assumption of classical behavior for rotation
           may cause significant error
 Rotational temperatures (Kelvin)      0.14079     0.06386     0.04491
 Rotational constants (GHZ):           2.93353     1.33062     0.93586
    1 imaginary frequencies ignored.
 Zero-point vibrational energy     244014.6 (Joules/Mol)
                                   58.32088 (Kcal/Mol)
 Warning -- explicit consideration of  15 degrees of freedom as
           vibrations may cause significant error
 Vibrational temperatures:     65.48   140.49   145.30   166.01   184.44
          (Kelvin)            266.87   301.80   433.08   531.53   618.07
                              643.34   709.15   713.03   780.20   827.50
                              976.94  1035.64  1414.05  1455.02  1529.46
                             1540.76  1562.98  1565.84  1776.83  2304.46
                             2314.31  3301.58  3327.10  3349.88  3352.02
                             3358.74  3367.57  4794.70  4910.13  4932.11

 Zero-point correction=                           0.092940 (Hartree/Particle)
 Thermal correction to Energy=                    0.103171
 Thermal correction to Enthalpy=                  0.104115
 Thermal correction to Gibbs Free Energy=         0.055687
 Sum of electronic and zero-point Energies=           -946.652376
 Sum of electronic and thermal Energies=              -946.642146
 Sum of electronic and thermal Enthalpies=            -946.641202
 Sum of electronic and thermal Free Energies=         -946.689630

                     E (Thermal)             CV                S
                      KCal/Mol        Cal/Mol-Kelvin    Cal/Mol-Kelvin
 Total                   64.741             34.065            101.926
 Electronic               0.000              0.000              0.000
 Translational            0.889              2.981             42.963
 Rotational               0.889              2.981             28.866
 Vibrational             62.963             28.104             30.097
 Vibration     1          0.595              1.979              5.004
 Vibration     2          0.603              1.951              3.501
 Vibration     3          0.604              1.948              3.435
 Vibration     4          0.608              1.937              3.176
 Vibration     5          0.611              1.925              2.973
 Vibration     6          0.632              1.860              2.272
 Vibration     7          0.642              1.826              2.046
 Vibration     8          0.693              1.672              1.411
 Vibration     9          0.742              1.535              1.082
 Vibration    10          0.791              1.406              0.860
 Vibration    11          0.806              1.367              0.804
 Vibration    12          0.849              1.266              0.676
 Vibration    13          0.851              1.260              0.669
 Vibration    14          0.897              1.157              0.560
 Vibration    15          0.931              1.085              0.494

                       ! Non-Optimized Parameters !
 Normal termination of Gaussian 16 at Thu May 30 17:07:10 2024.
