 Gaussian 16, Revision C.01,
 Gaussian 16:  ES64L-G16RevC.01  3-Jul-2019

 -----------------------------
 # PBEPBE GenECP POpt Pop=NBO7
 -----------------------------

 ---------------------
 trans-(H)Ir(PH3)2(CO)
 ---------------------
 Symbolic Z-matrix:
 Charge =  1 Multiplicity = 1

 SCF Done:  E(RPBE-PBE) =  -1151.53276767     A.U. after   18 cycles
 SCF Done:  E(RPBE-PBE) =  -1151.56335793     A.U. after   16 cycles
 SCF Done:  E(RPBE-PBE) =  -1151.56589482     A.U. after   13 cycles
 SCF Done:  E(RPBE-PBE) =  -1151.56665745     A.U. after   12 cycles
 SCF Done:  E(RPBE-PBE) =  -1151.56678283     A.U. after   12 cycles
 SCF Done:  E(RPBE-PBE) =  -1151.56680083     A.U. after   10 cycles
 SCF Done:  E(RPBE-PBE) =  -1151.56680361     A.U. after   10 cycles
 SCF Done:  E(RPBE-PBE) =  -1151.56680410     A.U. after    9 cycles
 Optimization completed.
    -- Stationary point found.

                         Standard orientation:
 ---------------------------------------------------------------------
 Center     Atomic      Atomic             Coordinates (Angstroms)
 Number     Number       Type             X           Y           Z
 ---------------------------------------------------------------------
      1         77           0       -0.703825   -0.000022    0.000009
      2          7           0        1.526806    0.000091    0.000110
      3         15           0       -0.703706   -2.329985   -0.000092
      4          6           0       -2.571825   -0.000117   -0.000075
      5         15           0       -0.703943    2.329746    0.000111
      6          1           0       -0.087057   -3.004782    1.092727
      7          1           0       -1.962435   -2.989477   -0.001145
      8          1           0       -0.085373   -3.004603   -1.092054
      9          1           0       -0.084366    3.004461   -1.091059
     10          1           0       -1.963100    2.988382   -0.002543
     11          1           0       -0.088897    3.004257    1.093986
     12          8           0       -3.729584    0.000290   -0.000054
     13          6           0        2.254065   -1.149710    0.000093
     14          6           0        3.645198   -1.193817    0.000154
     15          6           0        4.367858    0.000110   -0.000023
     16          6           0        3.645070    1.194003   -0.000257
     17          6           0        2.253942    1.150088   -0.000199
     18          1           0        1.708386   -2.089834    0.001009
     19          1           0        4.143824   -2.164112    0.000255
     20          1           0        5.459364    0.000274    0.000087
     21          1           0        4.143838    2.164238   -0.000417
     22          1           0        1.708257    2.090198   -0.000361
 ---------------------------------------------------------------------

 The electronic state is 1-A.
 Alpha  occ. eigenvalues --  -76.47409 -76.47407 -18.94216 -14.19306 -10.12470
 Alpha  occ. eigenvalues --  -10.08638 -10.08637 -10.05683 -10.05060 -10.05058
 Alpha  occ. eigenvalues --   -6.48821  -6.48819  -4.70433  -4.70432  -4.70409
 Alpha  occ. eigenvalues --   -4.70408  -4.70140  -4.70139  -3.69049  -2.08841
 Alpha  occ. eigenvalues --   -2.07845  -2.03345  -1.16171  -1.04079  -0.89357
 Alpha  occ. eigenvalues --   -0.85727  -0.77067  -0.76230  -0.73308  -0.73287
 Alpha  occ. eigenvalues --   -0.65602  -0.63946  -0.59956  -0.57712  -0.56441
 Alpha  occ. eigenvalues --   -0.55722  -0.53783  -0.53284  -0.53101  -0.52881
 Alpha  occ. eigenvalues --   -0.52542  -0.52251  -0.51627  -0.50808  -0.50291
 Alpha  occ. eigenvalues --   -0.47550  -0.44448  -0.43193  -0.43006  -0.40005
 Alpha  occ. eigenvalues --   -0.39852  -0.36059  -0.35672  -0.32154
 Alpha virt. eigenvalues --   -0.23936  -0.20737  -0.20395  -0.20016  -0.17583
 Alpha virt. eigenvalues --   -0.15852  -0.14189  -0.14091  -0.13951  -0.12944
 Alpha virt. eigenvalues --   -0.12650  -0.11116  -0.10047  -0.09860  -0.09581

 Mulliken charges:
               1
     1  Ir   0.804656
     2  N    0.419923
     3  P   -0.196902
     4  C   -0.431010
     5  P   -0.196743
     6  H    0.106291
     7  H    0.129861
     8  H    0.106217
     9  H    0.106004
    10  H    0.129833
    11  H    0.106473
    12  O   -0.129364
    13  C   -0.567853
    14  C    0.444718
    15  C   -0.507875
    16  C    0.444828
    17  C   -0.568065
    18  H    0.130191
    19  H    0.176528
    20  H    0.185516
    21  H    0.176527
    22  H    0.130249
 Sum of Mulliken charges =   1.00000

 Dipole moment (field-independent basis, Debye):
    X=              5.7954    Y=              0.0003    Z=              0.0005  Tot=              5.7954
 Quadrupole moment (field-independent basis, Debye-Ang):
   XX=            -61.3357   YY=            -59.4784   ZZ=            -98.6736
   XY=              0.0007   XZ=              0.0006   YZ=             -0.0013

 Summary of Natural Population Analysis:

                                     Natural Population
             Natural    ---------------------------------------------
  Atom No    Charge        Core      Valence    Rydberg      Total
 --------------------------------------------------------------------
   Ir  1   -0.21356     67.99971     9.18520    0.02864    77.21356
    N  2   -0.49396      1.99999     5.46216    0.03181     7.49396
    P  3    0.17209      9.99996     4.78858    0.03937    14.82791
    C  4    0.55978      1.99998     3.38654    0.05370     5.44022
    P  5    0.17225      9.99996     4.78840    0.03938    14.82775
    H  6    0.07296      0.00000     0.92291    0.00413     0.92704
    H  7    0.08908      0.00000     0.90765    0.00327     0.91092
    H  8    0.07295      0.00000     0.92292    0.00413     0.92705
    H  9    0.07291      0.00000     0.92297    0.00413     0.92709
    H 10    0.08906      0.00000     0.90766    0.00327     0.91094
    H 11    0.07302      0.00000     0.92286    0.00413     0.92698
    O 12   -0.38883      1.99999     6.36968    0.01916     8.38883
    C 13    0.06504      1.99998     3.91246    0.02252     5.93496
    C 14   -0.21660      1.99998     4.20270    0.01392     6.21660
    C 15   -0.12984      1.99998     4.11481    0.01504     6.12984
    C 16   -0.21661      1.99998     4.20271    0.01392     6.21661
    C 17    0.06501      1.99998     3.91249    0.02252     5.93499
    H 18    0.20183      0.00000     0.79608    0.00209     0.79817
    H 19    0.25168      0.00000     0.74692    0.00140     0.74832
    H 20    0.24822      0.00000     0.75034    0.00144     0.75178
    H 21    0.25167      0.00000     0.74693    0.00140     0.74833
    H 22    0.20185      0.00000     0.79607    0.00209     0.79815
 ====================================================================
 * Total *  1.00000    103.99951    63.66905    0.33144   168.00000

 Normal termination of Gaussian 16 at Thu Jun  6 11:38:08 2024.
