 Gaussian 16, Revision C.01,
 Gaussian 16:  ES64L-G16RevC.01  3-Jul-2019

 ------------------------
 # PBEPBE GenECP Pop=NBO7
 ------------------------

 ---------------------
 trans-(H)Ir(PH3)2(CO)
 ---------------------
 Symbolic Z-matrix:
 Charge =  0 Multiplicity = 1

                         Standard orientation:
 ---------------------------------------------------------------------
 Center     Atomic      Atomic             Coordinates (Angstroms)
 Number     Number       Type             X           Y           Z
 ---------------------------------------------------------------------
      1         77           0       -0.000114   -0.264339   -0.000006
      2          6           0        0.000273    1.603621    0.000287
      3         15           0        2.289488   -0.264814   -0.000010
      4          1           0       -0.000463   -1.947960   -0.000270
      5         15           0       -2.289776   -0.263864   -0.000002
      6          8           0        0.001603    2.772138   -0.000156
      7          1           0        2.996287   -0.886449   -1.073086
      8          1           0        2.975637    0.983154   -0.002507
      9          1           0        2.996061   -0.881874    1.075886
     10          1           0       -2.975400    0.984384   -0.001901
     11          1           0       -2.996766   -0.884630   -1.073460
     12          1           0       -2.996715   -0.881186    1.075503
 ---------------------------------------------------------------------

 SCF Done:  E(RPBE-PBE) =  -904.312890915     A.U. after   13 cycles

 The electronic state is 1-A.
 Alpha  occ. eigenvalues --  -76.33565 -76.33563 -18.79567  -9.97286  -6.34865
 Alpha  occ. eigenvalues --   -6.34864  -4.56495  -4.56494  -4.56473  -4.56472
 Alpha  occ. eigenvalues --   -4.56177  -4.56175  -3.53540  -1.92729  -1.92599
 Alpha  occ. eigenvalues --   -1.88323  -1.01314  -0.62900  -0.61896  -0.50717
 Alpha  occ. eigenvalues --   -0.41960  -0.40525  -0.38641  -0.38517  -0.38030
 Alpha  occ. eigenvalues --   -0.37942  -0.37600  -0.37008  -0.29305  -0.24884
 Alpha  occ. eigenvalues --   -0.24093  -0.21363  -0.21112  -0.17438
 Alpha virt. eigenvalues --   -0.07396  -0.05130  -0.04137  -0.01281  -0.01251
 Alpha virt. eigenvalues --   -0.00589  -0.00011   0.00611   0.00818   0.01996
 Alpha virt. eigenvalues --    0.02151   0.03116   0.03442   0.03492   0.04444

 Mulliken charges:
               1
     1  Ir   0.159909
     2  C   -0.101641
     3  P   -0.074103
     4  H   -0.064396
     5  P   -0.074062
     6  O   -0.215237
     7  H    0.061178
     8  H    0.062411
     9  H    0.061167
    10  H    0.062416
    11  H    0.061184
    12  H    0.061175
 Sum of Mulliken charges =  -0.00000

 Dipole moment (field-independent basis, Debye):
    X=             -0.0015    Y=             -0.4326    Z=              0.0009  Tot=              0.4326
 Quadrupole moment (field-independent basis, Debye-Ang):
   XX=            -47.5182   YY=            -73.7357   ZZ=            -66.7997
   XY=             -0.0089   XZ=             -0.0001   YZ=              0.0007

 Summary of Natural Population Analysis:

                                     Natural Population
             Natural    ---------------------------------------------
  Atom No    Charge        Core      Valence    Rydberg      Total
 --------------------------------------------------------------------
   Ir  1   -0.37849     67.99967     9.34242    0.03640    77.37849
    C  2    0.40961      1.99998     3.51494    0.07546     5.59039
    P  3    0.21892      9.99997     4.73865    0.04247    14.78108
    H  4   -0.23811      0.00000     1.23467    0.00344     1.23811
    P  5    0.21890      9.99997     4.73867    0.04247    14.78110
    O  6   -0.46384      1.99999     6.44344    0.02041     8.46384
    H  7    0.04117      0.00000     0.95397    0.00486     0.95883
    H  8    0.03415      0.00000     0.96149    0.00436     0.96585
    H  9    0.04118      0.00000     0.95396    0.00486     0.95882
    H 10    0.03416      0.00000     0.96148    0.00436     0.96584
    H 11    0.04118      0.00000     0.95396    0.00486     0.95882
    H 12    0.04118      0.00000     0.95396    0.00486     0.95882
 ====================================================================
 * Total *  0.00000     91.99958    35.75161    0.24881   128.00000

 Normal termination of Gaussian 16 at Wed Jun  5 12:09:30 2024.
