 Gaussian 16, Revision C.01,
 Gaussian 16:  ES64L-G16RevC.01  3-Jul-2019

 --------------------
 # PBEPBE GenECP POpt
 --------------------

 ----------------------
 trans-(H)Ir(PH3)2(NH3)
 ----------------------
 Symbolic Z-matrix:
 Charge =  1 Multiplicity = 1

 SCF Done:  E(RPBE-PBE) =  -1094.80092197     A.U. after   16 cycles
 SCF Done:  E(RPBE-PBE) =  -1094.80934304     A.U. after   15 cycles
 SCF Done:  E(RPBE-PBE) =  -1094.81004349     A.U. after   12 cycles
 SCF Done:  E(RPBE-PBE) =  -1094.81012416     A.U. after   11 cycles
 SCF Done:  E(RPBE-PBE) =  -1094.81013721     A.U. after   11 cycles
 SCF Done:  E(RPBE-PBE) =  -1094.81014325     A.U. after    9 cycles
 SCF Done:  E(RPBE-PBE) =  -1094.80953696     A.U. after   13 cycles
 SCF Done:  E(RPBE-PBE) =  -1094.81014987     A.U. after   10 cycles
 SCF Done:  E(RPBE-PBE) =  -1094.81015034     A.U. after    9 cycles
 SCF Done:  E(RPBE-PBE) =  -1094.81015055     A.U. after    9 cycles
 Optimization completed.
    -- Stationary point found.

                         Standard orientation:
 ---------------------------------------------------------------------
 Center     Atomic      Atomic             Coordinates (Angstroms)
 Number     Number       Type             X           Y           Z
 ---------------------------------------------------------------------
      1         77           0       -0.775875   -0.000954    0.000012
      2          7           0        1.348276   -0.000229   -0.000196
      3         15           0       -0.775090   -2.298442    0.000205
      4          7           0       -2.900394   -0.001681    0.000220
      5         15           0       -0.776662    2.302423   -0.000182
      6          1           0       -0.189371   -3.017251    1.085312
      7          1           0       -2.043797   -2.963216    0.000300
      8          1           0       -0.189751   -3.017204   -1.085139
      9          1           0       -0.182070    3.013172   -1.085722
     10          1           0       -2.034552    2.984249    0.001024
     11          1           0       -0.180101    3.013259    1.084229
     12          1           0       -3.276790    0.506140    0.810727
     13          1           0       -3.272140    0.449222   -0.845591
     14          1           0       -3.320319   -0.937698    0.032247
     15          6           0        2.093315   -1.146908   -0.000173
     16          6           0        3.483178   -1.188687   -0.000305
     17          6           0        4.213541    0.000065    0.000009
     18          6           0        3.483082    1.188587    0.000448
     19          6           0        2.093070    1.146452    0.000355
     20          1           0        1.560348   -2.092705   -0.001240
     21          1           0        3.975391   -2.162459   -0.000724
     22          1           0        5.304481    0.000080   -0.000109
     23          1           0        3.975096    2.162460    0.000766
     24          1           0        1.559952    2.092044    0.000513
 ---------------------------------------------------------------------

 The electronic state is 1-A.
 Alpha  occ. eigenvalues --  -76.45295 -76.45265 -14.18084 -14.17954 -10.06218
 Alpha  occ. eigenvalues --  -10.06208 -10.03230 -10.02927 -10.02924  -6.46686
 Alpha  occ. eigenvalues --   -6.46656  -4.68342  -4.68305  -4.68268  -4.68243
 Alpha  occ. eigenvalues --   -4.67971  -4.67941  -3.64776  -2.03981  -2.03957
 Alpha  occ. eigenvalues --   -1.99266  -1.01869  -0.98088  -0.87277  -0.83498
 Alpha  occ. eigenvalues --   -0.75155  -0.74413  -0.71269  -0.71072  -0.62502
 Alpha  occ. eigenvalues --   -0.61505  -0.61205  -0.57808  -0.55876  -0.53841
 Alpha  occ. eigenvalues --   -0.53122  -0.51141  -0.50858  -0.50237  -0.50169
 Alpha  occ. eigenvalues --   -0.49606  -0.49147  -0.48067  -0.45323  -0.43041
 Alpha  occ. eigenvalues --   -0.41084  -0.40947  -0.37791  -0.34932  -0.32644
 Alpha  occ. eigenvalues --   -0.29927  -0.28912
 Alpha virt. eigenvalues --   -0.21252  -0.18530  -0.18422  -0.16850  -0.16456
 Alpha virt. eigenvalues --   -0.14695  -0.13372  -0.12152  -0.11927  -0.11290
 Alpha virt. eigenvalues --   -0.09538  -0.09266  -0.09042  -0.08280  -0.07515

 Mulliken charges:
               1
     1  Ir   0.263628
     2  N    0.563110
     3  P   -0.317583
     4  N   -0.546087
     5  P   -0.264875
     6  H    0.101577
     7  H    0.074457
     8  H    0.101592
     9  H    0.099702
    10  H    0.088757
    11  H    0.099434
    12  H    0.303085
    13  H    0.304934
    14  H    0.275074
    15  C   -0.652218
    16  C    0.495466
    17  C   -0.581975
    18  C    0.446895
    19  C   -0.607014
    20  H    0.119347
    21  H    0.169500
    22  H    0.176240
    23  H    0.169494
    24  H    0.117459
 Sum of Mulliken charges =   1.00000

 Dipole moment (field-independent basis, Debye):
    X=             -1.2833    Y=              0.0578    Z=             -0.0058  Tot=              1.2846
 Quadrupole moment (field-independent basis, Debye-Ang):
   XX=            -41.2651   YY=            -63.6651   ZZ=            -96.1447
   XY=             -0.1891   XZ=              0.0073   YZ=              0.0032

 Normal termination of Gaussian 16 at Thu Jun  6 11:39:05 2024.
