 Gaussian 16, Revision C.01,
 Gaussian 16:  ES64L-G16RevC.01  3-Jul-2019

 ---------------------------------
 # PBEPBE GenECP Pop=NBO freq Popt
 ---------------------------------

 ----------------------
 trans-(H)Ir(PH3)2(NH3)
 ----------------------
 Symbolic Z-matrix:
 Charge =  0 Multiplicity = 1

 SCF Done:  E(RPBE-PBE) =  -847.547678367     A.U. after   14 cycles
 SCF Done:  E(RPBE-PBE) =  -847.547680064     A.U. after    8 cycles
 SCF Done:  E(RPBE-PBE) =  -847.547680665     A.U. after    8 cycles
 Optimization completed.
    -- Stationary point found.
 Normal termination of Gaussian 16 at Thu May 30 17:23:58 2024.

 -------------------------------------------------------------------
 #N Geom=AllCheck Guess=TCheck SCRF=Check GenChk RPBEPBE/GenECP Freq
 -------------------------------------------------------------------

 Structure from the checkpoint file:  "trans-H_Ir_PH3_2_NH3.chk"
 ----------------------
 trans-(H)Ir(PH3)2(NH3)
 ----------------------
 Charge =  0 Multiplicity = 1

                         Standard orientation:
 ---------------------------------------------------------------------
 Center     Atomic      Atomic             Coordinates (Angstroms)
 Number     Number       Type             X           Y           Z
 ---------------------------------------------------------------------
      1         77           0       -0.000607    0.180649   -0.000002
      2          1           0        0.000247    1.778590    0.000002
      3         15           0       -2.248067    0.181851   -0.000011
      4          7           0       -0.001824   -2.095142   -0.000007
      5         15           0        2.250651    0.179445    0.000008
      6          1           0       -2.997121    0.771024   -1.070163
      7          1           0       -2.953815   -1.074449    0.003718
      8          1           0       -2.997119    0.777247    1.066680
      9          1           0        2.992116    0.781022    1.068592
     10          1           0        2.973771   -1.065008   -0.001199
     11          1           0        2.992145    0.783059   -1.067416
     12          1           0        0.477828   -2.459217   -0.829686
     13          1           0        0.477638   -2.459220    0.829781
     14          1           0       -0.944914   -2.496434   -0.000076
 ---------------------------------------------------------------------

 SCF Done:  E(RPBE-PBE) =  -847.547680665     A.U. after    1 cycles

 The electronic state is 1-A.
 Alpha  occ. eigenvalues --  -76.30752 -76.30728 -14.02345  -6.32010  -6.31985
 Alpha  occ. eigenvalues --   -4.53676  -4.53647  -4.53613  -4.53592  -4.53293
 Alpha  occ. eigenvalues --   -4.53270  -3.47648  -1.87464  -1.85951  -1.82678
 Alpha  occ. eigenvalues --   -0.82865  -0.60196  -0.59261  -0.46590  -0.46390
 Alpha  occ. eigenvalues --   -0.36721  -0.35523  -0.35484  -0.35317  -0.34964
 Alpha  occ. eigenvalues --   -0.33770  -0.26472  -0.23610  -0.18973  -0.17097
 Alpha  occ. eigenvalues --   -0.13557  -0.13079
 Alpha virt. eigenvalues --   -0.04625  -0.03722  -0.03177  -0.01914  -0.00371
 Alpha virt. eigenvalues --    0.02015   0.02097   0.02854   0.02865   0.03609
 Alpha virt. eigenvalues --    0.03629   0.04000   0.05063   0.05330   0.05787

 Mulliken charges:
               1
     1  Ir   0.063278
     2  H   -0.006722
     3  P   -0.207159
     4  N   -0.604225
     5  P   -0.255355
     6  H    0.048917
     7  H   -0.005507
     8  H    0.048985
     9  H    0.048886
    10  H    0.010341
    11  H    0.048906
    12  H    0.271821
    13  H    0.271845
    14  H    0.265989
 Sum of Mulliken charges =  -0.00000

 Dipole moment (field-independent basis, Debye):
    X=              0.0462    Y=             -4.5296    Z=             -0.0003  Tot=              4.5298
 Quadrupole moment (field-independent basis, Debye-Ang):
   XX=            -53.3499   YY=            -55.1112   ZZ=            -65.2477
   XY=             -0.1355   XZ=              0.0007   YZ=              0.0004

  Exact polarizability:     178.334       0.261     111.126      -0.000       0.002     101.924
 Approx polarizability:     336.590       0.488     201.696      -0.002       0.009     221.426

 Summary of Natural Population Analysis:

                                       Natural Population
                Natural  -----------------------------------------------
    Atom  No    Charge         Core      Valence    Rydberg      Total
 -----------------------------------------------------------------------
     Ir    1   -0.94078     67.98414     9.92084    0.03579    77.94078
      H    2    0.03916      0.00000     0.95677    0.00406     0.96084
      P    3    0.30513      9.99718     4.64955    0.04815    14.69487
      N    4   -0.94233      1.99958     5.91929    0.02346     7.94233
      P    5    0.29886      9.99721     4.65611    0.04782    14.70114
      H    6    0.02405      0.00000     0.97054    0.00541     0.97595
      H    7   -0.01342      0.00000     1.00759    0.00583     1.01342
      H    8    0.02410      0.00000     0.97049    0.00541     0.97590
      H    9    0.02421      0.00000     0.97037    0.00542     0.97579
      H   10   -0.00688      0.00000     1.00158    0.00530     1.00688
      H   11    0.02423      0.00000     0.97036    0.00541     0.97577
      H   12    0.38932      0.00000     0.60833    0.00235     0.61068
      H   13    0.38932      0.00000     0.60833    0.00235     0.61068
      H   14    0.38504      0.00000     0.61269    0.00227     0.61496
 =======================================================================
   * Total *   -0.00000     89.97811    33.82284    0.19904   124.00000

 ******    1 imaginary frequencies (negative Signs) ******

                      1                      2                      3
                      A                      A                      A
 Frequencies --    -31.5570                52.6358                99.0756
 Red. masses --      1.1018                 3.3688                 4.0571
 Frc consts  --      0.0006                 0.0055                 0.0235
 IR Inten    --      0.0664                 4.0399                 2.9787

                      4                      5                      6
                      A                      A                      A
 Frequencies --    125.2982               140.2744               154.5501
 Red. masses --      1.0382                 1.0431                 3.1900
 Frc consts  --      0.0096                 0.0121                 0.0449
 IR Inten    --      1.2495                 0.9838                 4.0506

                      7                      8                      9
                      A                      A                      A
 Frequencies --    324.3242               329.4866               382.8737
 Red. masses --      5.1207                 8.7623                 8.2903
 Frc consts  --      0.3174                 0.5605                 0.7160
 IR Inten    --      8.0821                42.9399                 0.0438

                     10                     11                     12
                      A                      A                      A
 Frequencies --    436.0133               456.9987               498.9332
 Red. masses --      1.0340                 1.1202                 1.1426
 Frc consts  --      0.1158                 0.1378                 0.1676
 IR Inten    --      0.9557                 0.0001                 6.0888

                     13                     14                     15
                      A                      A                      A
 Frequencies --    551.6732               564.3661               592.6664
 Red. masses --      1.2006                 1.1453                 1.2509
 Frc consts  --      0.2153                 0.2149                 0.2589
 IR Inten    --      0.7254                 2.3892                20.5951

                     16                     17                     18
                      A                      A                      A
 Frequencies --    663.9242               832.7841               993.4766
 Red. masses --      1.1335                 1.0433                 1.0809
 Frc consts  --      0.2944                 0.4263                 0.6286
 IR Inten    --      0.2468                74.5470               440.3961

                     19                     20                     21
                      A                      A                      A
 Frequencies --   1018.6895              1072.7323              1078.9298
 Red. masses --      1.0794                 1.0260                 1.0220
 Frc consts  --      0.6599                 0.6956                 0.7009
 IR Inten    --      5.3614                 2.1348                 9.9157

                     22                     23                     24
                      A                      A                      A
 Frequencies --   1087.2320              1087.8645              1147.8656
 Red. masses --      1.0269                 1.0244                 1.1649
 Frc consts  --      0.7152                 0.7143                 0.9043
 IR Inten    --      4.5918                11.3278               105.1732

                     25                     26                     27
                      A                      A                      A
 Frequencies --   1605.1208              1613.7471              2185.8322
 Red. masses --      1.0630                 1.0614                 1.0124
 Frc consts  --      1.6136                 1.6285                 2.8501
 IR Inten    --     21.8003                21.8382               135.5451

                     28                     29                     30
                      A                      A                      A
 Frequencies --   2262.6384              2276.2809              2309.5124
 Red. masses --      1.0372                 1.0375                 1.0419
 Frc consts  --      3.1286                 3.1673                 3.2742
 IR Inten    --    158.3153               117.6922                 0.2243

                     31                     32                     33
                      A                      A                      A
 Frequencies --   2310.6293              2320.8249              2328.4402
 Red. masses --      1.0395                 1.0314                 1.0319
 Frc consts  --      3.2699                 3.2730                 3.2964
 IR Inten    --     52.8345               415.8582                16.7615

                     34                     35                     36
                      A                      A                      A
 Frequencies --   3363.0355              3473.8178              3476.1231
 Red. masses --      1.0262                 1.0907                 1.0905
 Frc consts  --      6.8380                 7.7550                 7.7634
 IR Inten    --     15.6930                20.7907                 7.5198

 - Thermochemistry -
 -------------------
 Temperature   298.150 Kelvin.  Pressure   1.00000 Atm.
 Atom     1 has atomic number 77 and mass 192.96330

 Molecular mass:   278.99215 amu.
 Principal axes and moments of inertia in atomic units:
                           1         2         3
     Eigenvalues --   363.049271337.850061658.13411
           X            1.00000   0.00023  -0.00000
           Y           -0.00023   1.00000  -0.00000
           Z            0.00000   0.00000   1.00000
 This molecule is an asymmetric top.
 Rotational symmetry number  1.
 Rotational temperatures (Kelvin)      0.23857     0.06474     0.05224
 Rotational constants (GHZ):           4.97106     1.34899     1.08842
    1 imaginary frequencies ignored.
 Zero-point vibrational energy     258505.1 (Joules/Mol)
                                   61.78419 (Kcal/Mol)
 Warning -- explicit consideration of  14 degrees of freedom as
           vibrations may cause significant error
 Vibrational temperatures:     75.73   142.55   180.28   201.82   222.36
          (Kelvin)            466.63   474.06   550.87   627.33   657.52
                              717.85   793.73   812.00   852.71   955.24
                             1198.19  1429.39  1465.67  1543.42  1552.34
                             1564.28  1565.19  1651.52  2309.41  2321.82
                             3144.93  3255.43  3275.06  3322.87  3324.48
                             3339.15  3350.11  4838.66  4998.05  5001.37

 Zero-point correction=                           0.098459 (Hartree/Particle)
 Thermal correction to Energy=                    0.107639
 Thermal correction to Enthalpy=                  0.108584
 Thermal correction to Gibbs Free Energy=         0.062970
 Sum of electronic and zero-point Energies=           -847.449221
 Sum of electronic and thermal Energies=              -847.440041
 Sum of electronic and thermal Enthalpies=            -847.439097
 Sum of electronic and thermal Free Energies=         -847.484711

                     E (Thermal)             CV                S
                      KCal/Mol        Cal/Mol-Kelvin    Cal/Mol-Kelvin
 Total                   67.545             31.453             96.002
 Electronic               0.000              0.000              0.000
 Translational            0.889              2.981             42.776
 Rotational               0.889              2.981             28.178
 Vibrational             65.767             25.491             25.047
 Vibration     1          0.596              1.977              4.716
 Vibration     2          0.604              1.950              3.472
 Vibration     3          0.610              1.928              3.017
 Vibration     4          0.615              1.913              2.800
 Vibration     5          0.620              1.898              2.615
 Vibration     6          0.709              1.627              1.288
 Vibration     7          0.712              1.617              1.263
 Vibration     8          0.752              1.507              1.028
 Vibration     9          0.796              1.392              0.839
 Vibration    10          0.815              1.345              0.775
 Vibration    11          0.854              1.252              0.661
 Vibration    12          0.907              1.136              0.541
 Vibration    13          0.920              1.108              0.515
 Vibration    14          0.950              1.047              0.462

                       ! Non-Optimized Parameters !
 Normal termination of Gaussian 16 at Thu May 30 17:24:23 2024.
