 Gaussian 16, Revision C.01,
 Gaussian 16:  ES64L-G16RevC.01  3-Jul-2019

 ------------------------
 # PBEPBE GenECP Pop=NBO7
 ------------------------

 ---------------------
 trans-(F)Ir(PH3)2(CO)
 ---------------------
 Symbolic Z-matrix:
 Charge =  0 Multiplicity = 1

                         Standard orientation:
 ---------------------------------------------------------------------
 Center     Atomic      Atomic             Coordinates (Angstroms)
 Number     Number       Type             X           Y           Z
 ---------------------------------------------------------------------
      1         77           0        0.000001    0.127325   -0.000000
      2          6           0       -0.000006   -1.740635   -0.000005
      3         15           0       -2.308482    0.127333   -0.000000
      4          9           0        0.000008    2.147763    0.000006
      5         15           0        2.308485    0.127317   -0.000000
      6          8           0       -0.000022   -2.911375    0.000005
      7          1           0       -2.995743   -0.500741   -1.078760
      8          1           0       -2.995735   -0.500704    1.078779
      9          1           0       -2.962641    1.392057   -0.000041
     10          1           0        2.995734   -0.500733    1.078779
     11          1           0        2.995743   -0.500760   -1.078766
     12          1           0        2.962654    1.392036   -0.000035
 ---------------------------------------------------------------------

 SCF Done:  E(RPBE-PBE) =  -1003.53717915     A.U. after   15 cycles

 The electronic state is 1-A.
 Alpha  occ. eigenvalues --  -76.34317 -76.34317 -24.15309 -18.80136  -9.98457
 Alpha  occ. eigenvalues --   -6.35705  -6.35703  -4.57317  -4.57317  -4.57307
 Alpha  occ. eigenvalues --   -4.57307  -4.57015  -4.57015  -3.55739  -1.95498
 Alpha  occ. eigenvalues --   -1.94482  -1.90083  -1.01882  -0.95959  -0.63791
 Alpha  occ. eigenvalues --   -0.62856  -0.51537  -0.42632  -0.41214  -0.39602
 Alpha  occ. eigenvalues --   -0.39390  -0.39207  -0.38813  -0.38543  -0.38267
 Alpha  occ. eigenvalues --   -0.30865  -0.30473  -0.29113  -0.28669  -0.22403
 Alpha  occ. eigenvalues --   -0.22218  -0.20575  -0.18714
 Alpha virt. eigenvalues --   -0.07014  -0.06464  -0.04458  -0.03868  -0.02216
 Alpha virt. eigenvalues --   -0.01940  -0.01662   0.00041   0.00128   0.01080
 Alpha virt. eigenvalues --    0.01811   0.03243   0.03360   0.03486   0.03845

 Mulliken charges:
               1
     1  Ir   0.316853
     2  C   -0.203879
     3  P    0.008267
     4  F   -0.367848
     5  P    0.008267
     6  O   -0.190909
     7  H    0.065230
     8  H    0.065231
     9  H    0.084163
    10  H    0.065231
    11  H    0.065230
    12  H    0.084163
 Sum of Mulliken charges =  -0.00000

 Dipole moment (field-independent basis, Debye):
    X=              0.0000    Y=             -1.4646    Z=             -0.0000  Tot=              1.4646
 Quadrupole moment (field-independent basis, Debye-Ang):
   XX=            -47.1744   YY=            -83.4959   ZZ=            -69.6869
   XY=             -0.0002   XZ=              0.0000   YZ=             -0.0000

 Summary of Natural Population Analysis:

                                     Natural Population
             Natural    ---------------------------------------------
  Atom No    Charge        Core      Valence    Rydberg      Total
 --------------------------------------------------------------------
   Ir  1   -0.09025     67.99972     9.04729    0.04325    77.09025
    C  2    0.45027      1.99998     3.48698    0.06278     5.54973
    P  3    0.22204      9.99997     4.73759    0.04041    14.77796
    F  4   -0.64569      2.00000     7.63872    0.00697     9.64569
    P  5    0.22203      9.99997     4.73759    0.04041    14.77797
    O  6   -0.47101      1.99999     6.44808    0.02293     8.47101
    H  7    0.04669      0.00000     0.94896    0.00435     0.95331
    H  8    0.04669      0.00000     0.94896    0.00435     0.95331
    H  9    0.06292      0.00000     0.93299    0.00409     0.93708
    H 10    0.04669      0.00000     0.94896    0.00435     0.95331
    H 11    0.04670      0.00000     0.94896    0.00435     0.95330
    H 12    0.06292      0.00000     0.93299    0.00409     0.93708
 ====================================================================
 * Total *  0.00000     93.99963    41.75807    0.24230   136.00000

 Normal termination of Gaussian 16 at Wed Jun  5 12:01:09 2024.
