 Gaussian 16, Revision C.01,
 Gaussian 16:  ES64L-G16RevC.01  3-Jul-2019

 -----------------------------
 # PBEPBE GenECP POpt Pop=NBO7
 -----------------------------

 ---------------------
 trans-(H)Ir(PH3)2(CO)
 ---------------------
 Symbolic Z-matrix:
 Charge =  0 Multiplicity = 1

 SCF Done:  E(RPBE-PBE) =  -1226.26031676     A.U. after   19 cycles
 SCF Done:  E(RPBE-PBE) =  -1226.33471011     A.U. after   15 cycles
 SCF Done:  E(RPBE-PBE) =  -1226.34655053     A.U. after   16 cycles
 SCF Done:  E(RPBE-PBE) =  -1226.34910340     A.U. after   14 cycles
 SCF Done:  E(RPBE-PBE) =  -1226.34959812     A.U. after   13 cycles
 SCF Done:  E(RPBE-PBE) =  -1226.34979879     A.U. after   13 cycles
 SCF Done:  E(RPBE-PBE) =  -1226.34983083     A.U. after   11 cycles
 SCF Done:  E(RPBE-PBE) =  -1226.34984598     A.U. after   11 cycles
 SCF Done:  E(RPBE-PBE) =  -1226.34986033     A.U. after   11 cycles
 SCF Done:  E(RPBE-PBE) =  -1226.34987262     A.U. after   11 cycles
 SCF Done:  E(RPBE-PBE) =  -1226.34988379     A.U. after   10 cycles
 SCF Done:  E(RPBE-PBE) =  -1226.34989332     A.U. after   10 cycles
 SCF Done:  E(RPBE-PBE) =  -1226.34990031     A.U. after   11 cycles
 SCF Done:  E(RPBE-PBE) =  -1226.34990507     A.U. after   10 cycles
 SCF Done:  E(RPBE-PBE) =  -1226.34990804     A.U. after   10 cycles
 SCF Done:  E(RPBE-PBE) =  -1226.34990954     A.U. after   10 cycles
 SCF Done:  E(RPBE-PBE) =  -1226.34991021     A.U. after   10 cycles
 SCF Done:  E(RPBE-PBE) =  -1226.34991053     A.U. after    9 cycles
 Optimization completed.
    -- Stationary point found.

                         Standard orientation:
 ---------------------------------------------------------------------
 Center     Atomic      Atomic             Coordinates (Angstroms)
 Number     Number       Type             X           Y           Z
 ---------------------------------------------------------------------
      1         77           0       -0.916297    0.000033   -0.000004
      2          7           0        1.230387   -0.000190   -0.000077
      3         15           0       -0.916537   -2.315533    0.000062
      4          6           0       -2.784297    0.000227    0.000060
      5         15           0       -0.916056    2.315386   -0.000070
      6          1           0       -0.317231   -3.010229    1.090174
      7          1           0       -2.183801   -2.965245   -0.004817
      8          1           0       -0.309491   -3.009952   -1.085877
      9          1           0       -0.311848    3.009902   -1.087561
     10          1           0       -2.183218    2.965351   -0.001232
     11          1           0       -0.313740    3.009899    1.088481
     12          8           0       -3.950779    0.000262    0.000065
     13          6           0        1.992853   -1.153340   -0.000070
     14          6           0        3.360446   -1.206402   -0.000116
     15          6           0        4.180482    0.000009    0.000064
     16          6           0        3.360268    1.206277    0.000287
     17          6           0        1.992669    1.153080    0.000115
     18          1           0        1.450434   -2.099356    0.000228
     19          1           0        3.861542   -2.177009   -0.000461
     20          8           0        5.427324    0.000040   -0.000048
     21          1           0        3.861160    2.176993    0.000170
     22          1           0        1.450325    2.099102   -0.000320
 ---------------------------------------------------------------------

 The electronic state is 1-A.
 Alpha  occ. eigenvalues --  -76.36547 -76.36547 -18.82589 -18.67633 -14.02255
 Alpha  occ. eigenvalues --  -10.00705  -9.92334  -9.92334  -9.92313  -9.87260
 Alpha  occ. eigenvalues --   -9.87259  -6.37909  -6.37908  -4.59543  -4.59542
 Alpha  occ. eigenvalues --   -4.59493  -4.59493  -4.59222  -4.59222  -3.57680
 Alpha  occ. eigenvalues --   -1.97282  -1.96519  -1.92052  -1.04384  -0.89272
 Alpha  occ. eigenvalues --   -0.86556  -0.69363  -0.69192  -0.66086  -0.65035
 Alpha  occ. eigenvalues --   -0.56560  -0.54728  -0.53614  -0.47101  -0.44260
 Alpha  occ. eigenvalues --   -0.43938  -0.43510  -0.41701  -0.41480  -0.41370
 Alpha  occ. eigenvalues --   -0.41314  -0.40944  -0.40731  -0.38917  -0.37251
 Alpha  occ. eigenvalues --   -0.36584  -0.33629  -0.32178  -0.31663  -0.30706
 Alpha  occ. eigenvalues --   -0.30226  -0.28208  -0.24664  -0.24516  -0.23777
 Alpha  occ. eigenvalues --   -0.20787  -0.18091  -0.16669
 Alpha virt. eigenvalues --   -0.09746  -0.08782  -0.06671  -0.04913  -0.04079
 Alpha virt. eigenvalues --   -0.03738  -0.03409  -0.03259  -0.03030  -0.02312
 Alpha virt. eigenvalues --   -0.01753  -0.00600   0.00381   0.00989   0.01700

 Mulliken charges:
               1
     1  Ir   0.917588
     2  N    0.358454
     3  P   -0.252977
     4  C   -0.493996
     5  P   -0.253008
     6  H    0.095524
     7  H    0.094988
     8  H    0.095194
     9  H    0.095289
    10  H    0.094976
    11  H    0.095404
    12  O   -0.184588
    13  C   -0.622399
    14  C    0.565096
    15  C   -0.626248
    16  C    0.565203
    17  C   -0.622349
    18  H    0.082180
    19  H    0.132032
    20  O   -0.350527
    21  H    0.132024
    22  H    0.082141
 Sum of Mulliken charges =  -0.00000

 Dipole moment (field-independent basis, Debye):
    X=             -8.5355    Y=             -0.0010    Z=              0.0001  Tot=              8.5355
 Quadrupole moment (field-independent basis, Debye-Ang):
   XX=           -161.0797   YY=            -77.6981   ZZ=           -107.3419
   XY=              0.0027   XZ=             -0.0017   YZ=             -0.0013

 Summary of Natural Population Analysis:

                                     Natural Population
             Natural    ---------------------------------------------
  Atom No    Charge        Core      Valence    Rydberg      Total
 --------------------------------------------------------------------
   Ir  1   -0.18287     67.99972     9.14393    0.03922    77.18287
    N  2   -0.60397      1.99999     5.57032    0.03365     7.60397
    P  3    0.19196      9.99996     4.76524    0.04283    14.80804
    C  4    0.49909      1.99998     3.44101    0.05991     5.50091
    P  5    0.19205      9.99996     4.76515    0.04284    14.80795
    H  6    0.06081      0.00000     0.93454    0.00464     0.93919
    H  7    0.05621      0.00000     0.94007    0.00373     0.94379
    H  8    0.06079      0.00000     0.93456    0.00464     0.93921
    H  9    0.06079      0.00000     0.93457    0.00464     0.93921
    H 10    0.05618      0.00000     0.94009    0.00373     0.94382
    H 11    0.06080      0.00000     0.93456    0.00464     0.93920
    O 12   -0.44788      1.99999     6.42769    0.02019     8.44788
    C 13    0.00964      1.99998     3.96635    0.02403     5.99036
    C 14   -0.30511      1.99998     4.28801    0.01711     6.30511
    C 15    0.38533      1.99998     3.57910    0.03559     5.61467
    C 16   -0.30511      1.99998     4.28802    0.01711     6.30511
    C 17    0.00963      1.99998     3.96635    0.02403     5.99037
    H 18    0.17315      0.00000     0.82372    0.00313     0.82685
    H 19    0.22922      0.00000     0.76841    0.00237     0.77078
    O 20   -0.60307      1.99999     6.58931    0.01376     8.60307
    H 21    0.22920      0.00000     0.76842    0.00237     0.77080
    H 22    0.17314      0.00000     0.82372    0.00313     0.82686
 ====================================================================
 * Total *  0.00000    105.99951    69.59318    0.40731   176.00000

 Normal termination of Gaussian 16 at Wed Jun  5 13:41:14 2024.
