 Gaussian 16, Revision C.01,
 Gaussian 16:  ES64L-G16RevC.01  3-Jul-2019

 --------------------
 # PBEPBE GenECP POpt
 --------------------

 ----------------------
 trans-(H)Ir(PH3)2(NH3)
 ----------------------
 Symbolic Z-matrix:
 Charge =  0 Multiplicity = 1

 SCF Done:  E(RPBE-PBE) =  -1169.49982297     A.U. after   21 cycles
 SCF Done:  E(RPBE-PBE) =  -1169.56367771     A.U. after   15 cycles
 SCF Done:  E(RPBE-PBE) =  -1169.57099254     A.U. after   16 cycles
 SCF Done:  E(RPBE-PBE) =  -1169.57220947     A.U. after   13 cycles
 SCF Done:  E(RPBE-PBE) =  -1169.57261063     A.U. after   12 cycles
 SCF Done:  E(RPBE-PBE) =  -1169.57275905     A.U. after   12 cycles
 SCF Done:  E(RPBE-PBE) =  -1169.57278560     A.U. after   11 cycles
 SCF Done:  E(RPBE-PBE) =  -1169.57278901     A.U. after   11 cycles
 SCF Done:  E(RPBE-PBE) =  -1169.57271018     A.U. after   12 cycles
 SCF Done:  E(RPBE-PBE) =  -1169.57279086     A.U. after   10 cycles
 Optimization completed.
    -- Stationary point found.

                         Standard orientation:
 ---------------------------------------------------------------------
 Center     Atomic      Atomic             Coordinates (Angstroms)
 Number     Number       Type             X           Y           Z
 ---------------------------------------------------------------------
      1         77           0       -1.002339   -0.000745    0.000019
      2          7           0        1.107399   -0.000238   -0.000156
      3         15           0       -1.001792   -2.278120    0.000253
      4          7           0       -3.149571   -0.001261    0.000197
      5         15           0       -1.002888    2.282546   -0.000216
      6          1           0       -0.428741   -3.019322    1.079024
      7          1           0       -2.281371   -2.937137    0.002863
      8          1           0       -0.434042   -3.018447   -1.081882
      9          1           0       -0.424306    3.015189   -1.081781
     10          1           0       -2.270385    2.959990    0.003478
     11          1           0       -0.418625    3.014793    1.078612
     12          1           0       -3.530988    0.571952    0.761746
     13          1           0       -3.519727    0.366322   -0.884753
     14          1           0       -3.550699   -0.938233    0.118127
     15          6           0        1.870962   -1.148933   -0.000101
     16          6           0        3.241782   -1.201637   -0.000210
     17          6           0        4.064896   -0.000214    0.000097
     18          6           0        3.241878    1.201070    0.000514
     19          6           0        1.870925    1.148271    0.000437
     20          1           0        1.332759   -2.096931   -0.001580
     21          1           0        3.738172   -2.174992   -0.000048
     22          8           0        5.314953   -0.000475   -0.000264
     23          1           0        3.738094    2.174515    0.000831
     24          1           0        1.333128    2.096246    0.000750
 ---------------------------------------------------------------------

 The electronic state is 1-A.
 Alpha  occ. eigenvalues --  -76.34262 -76.34227 -18.65429 -14.07224 -14.00691
 Alpha  occ. eigenvalues --   -9.90329  -9.90316  -9.90226  -9.85289  -9.85281
 Alpha  occ. eigenvalues --   -6.35584  -6.35550  -4.57263  -4.57223  -4.57162
 Alpha  occ. eigenvalues --   -4.57133  -4.56864  -4.56832  -3.52660  -1.92133
 Alpha  occ. eigenvalues --   -1.91570  -1.87178  -0.87378  -0.87046  -0.84699
 Alpha  occ. eigenvalues --   -0.67387  -0.67250  -0.63934  -0.62951  -0.54669
 Alpha  occ. eigenvalues --   -0.52515  -0.50863  -0.50612  -0.45151  -0.41752
 Alpha  occ. eigenvalues --   -0.41274  -0.39913  -0.39586  -0.39071  -0.38802
 Alpha  occ. eigenvalues --   -0.38536  -0.36844  -0.35226  -0.34630  -0.31932
 Alpha  occ. eigenvalues --   -0.29875  -0.29662  -0.28572  -0.28529  -0.22984
 Alpha  occ. eigenvalues --   -0.21857  -0.21010  -0.18870  -0.17089  -0.14848
 Alpha  occ. eigenvalues --   -0.14668
 Alpha virt. eigenvalues --   -0.07489  -0.06602  -0.06558  -0.04090  -0.03885
 Alpha virt. eigenvalues --   -0.02246  -0.01591  -0.01308  -0.01252  -0.00347
 Alpha virt. eigenvalues --    0.00238   0.01132   0.01707   0.01911   0.02191

 Mulliken charges:
               1
     1  Ir   0.295148
     2  N    0.599662
     3  P   -0.387539
     4  N   -0.541670
     5  P   -0.323453
     6  H    0.087920
     7  H    0.032644
     8  H    0.088508
     9  H    0.086489
    10  H    0.046976
    11  H    0.085909
    12  H    0.280079
    13  H    0.284498
    14  H    0.263132
    15  C   -0.694127
    16  C    0.586227
    17  C   -0.706443
    18  C    0.532390
    19  C   -0.651785
    20  H    0.077789
    21  H    0.126454
    22  O   -0.371632
    23  H    0.126399
    24  H    0.076425
 Sum of Mulliken charges =  -0.00000

 Dipole moment (field-independent basis, Debye):
    X=            -15.3556    Y=              0.0511    Z=             -0.0148  Tot=             15.3557
 Quadrupole moment (field-independent basis, Debye-Ang):
   XX=           -133.6405   YY=            -82.9374   ZZ=           -105.2563
   XY=             -0.1937   XZ=              0.0285   YZ=              0.0047

 Normal termination of Gaussian 16 at Mon Jun  3 17:41:34 2024.
