 Gaussian 16, Revision C.01,
 Gaussian 16:  ES64L-G16RevC.01  3-Jul-2019

 -----------------------------
 # PBEPBE GenECP POpt Pop=NBO7
 -----------------------------

 ---------------------
 trans-(H)Ir(PH3)2(CO)
 ---------------------
 Symbolic Z-matrix:
 Charge =  0 Multiplicity = 1

 SCF Done:  E(RPBE-PBE) =  -1135.08838637     A.U. after   19 cycles
 SCF Done:  E(RPBE-PBE) =  -1135.11208522     A.U. after   18 cycles
 SCF Done:  E(RPBE-PBE) =  -1135.11337209     A.U. after   17 cycles
 SCF Done:  E(RPBE-PBE) =  -1135.11361066     A.U. after   13 cycles
 SCF Done:  E(RPBE-PBE) =  -1135.11364568     A.U. after   13 cycles
 SCF Done:  E(RPBE-PBE) =  -1135.11365168     A.U. after   12 cycles
 SCF Done:  E(RPBE-PBE) =  -1135.11365329     A.U. after   11 cycles
 Optimization completed.
    -- Stationary point found.

                         Standard orientation:
 ---------------------------------------------------------------------
 Center     Atomic      Atomic             Coordinates (Angstroms)
 Number     Number       Type             X           Y           Z
 ---------------------------------------------------------------------
      1         77           0       -0.691174    0.000111   -0.000004
      2          6           0        1.473702    0.000574    0.000139
      3         15           0       -0.690681   -2.302501   -0.000145
      4          6           0       -2.559174   -0.000288   -0.000128
      5         15           0       -0.691665    2.300520    0.000136
      6          1           0       -0.088498   -3.009826    1.081782
      7          1           0       -1.950845   -2.967477   -0.001626
      8          1           0       -0.086011   -3.009727   -1.080719
      9          1           0       -0.082757    3.007374   -1.078321
     10          1           0       -1.951855    2.965433   -0.005958
     11          1           0       -0.093211    3.007488    1.084407
     12          8           0       -3.727785    0.001244    0.000089
     13          6           0        2.254660   -1.185094    0.000119
     14          6           0        3.655225   -1.199563    0.000211
     15          6           0        4.372025    0.000303    0.000000
     16          6           0        3.655301    1.200172   -0.000302
     17          6           0        2.254611    1.186453   -0.000172
     18          1           0        1.778501   -2.170408    0.001548
     19          1           0        4.184919   -2.156773    0.000355
     20          1           0        5.464830    0.000448    0.000044
     21          1           0        4.185384    2.157208   -0.000473
     22          1           0        1.779297    2.172127   -0.000476
 ---------------------------------------------------------------------

 The electronic state is 1-A.
 Alpha  occ. eigenvalues --  -76.34031 -76.34026 -18.79811  -9.97596  -9.87663
 Alpha  occ. eigenvalues --   -9.87620  -9.87607  -9.87558  -9.87557  -9.87355
 Alpha  occ. eigenvalues --   -6.35359  -6.35354  -4.56996  -4.56992  -4.56954
 Alpha  occ. eigenvalues --   -4.56950  -4.56664  -4.56660  -3.54329  -1.93545
 Alpha  occ. eigenvalues --   -1.93287  -1.89008  -1.01549  -0.76156  -0.66343
 Alpha  occ. eigenvalues --   -0.65920  -0.63267  -0.62540  -0.52910  -0.52829
 Alpha  occ. eigenvalues --   -0.50638  -0.45560  -0.42194  -0.41204  -0.39452
 Alpha  occ. eigenvalues --   -0.39034  -0.38818  -0.38732  -0.38698  -0.38291
 Alpha  occ. eigenvalues --   -0.37629  -0.37523  -0.35265  -0.32656  -0.31679
 Alpha  occ. eigenvalues --   -0.29672  -0.28744  -0.24780  -0.23731  -0.23223
 Alpha  occ. eigenvalues --   -0.21856  -0.21559  -0.19803  -0.17918
 Alpha virt. eigenvalues --   -0.08134  -0.05650  -0.04190  -0.03292  -0.02184
 Alpha virt. eigenvalues --   -0.01873  -0.01816  -0.01282  -0.00607   0.00029
 Alpha virt. eigenvalues --    0.00243   0.00467   0.01700   0.01748   0.02161

 Mulliken charges:
               1
     1  Ir   0.830429
     2  C    2.226525
     3  P   -0.425869
     4  C   -0.367632
     5  P   -0.425435
     6  H    0.089268
     7  H    0.088636
     8  H    0.089268
     9  H    0.088956
    10  H    0.088575
    11  H    0.089250
    12  O   -0.207179
    13  C   -0.742064
    14  C   -0.524553
    15  C   -0.186868
    16  C   -0.525013
    17  C   -0.736594
    18  H    0.088756
    19  H    0.121705
    20  H    0.129122
    21  H    0.121709
    22  H    0.089008
 Sum of Mulliken charges =  -0.00000

 Dipole moment (field-independent basis, Debye):
    X=             -0.0401    Y=             -0.0065    Z=              0.0007  Tot=              0.0407
 Quadrupole moment (field-independent basis, Debye-Ang):
   XX=           -107.6126   YY=            -78.6468   ZZ=           -104.6808
   XY=              0.0040   XZ=              0.0004   YZ=             -0.0017

 Summary of Natural Population Analysis:

                                     Natural Population
             Natural    ---------------------------------------------
  Atom No    Charge        Core      Valence    Rydberg      Total
 --------------------------------------------------------------------
   Ir  1   -0.25110     67.99970     9.21605    0.03535    77.25110
    C  2   -0.32231      1.99998     4.28262    0.03970     6.32231
    P  3    0.21313      9.99996     4.74381    0.04309    14.78687
    C  4    0.45548      1.99998     3.47848    0.06606     5.54452
    P  5    0.21434      9.99996     4.74251    0.04319    14.78566
    H  6    0.04944      0.00000     0.94591    0.00465     0.95056
    H  7    0.04444      0.00000     0.95171    0.00386     0.95556
    H  8    0.04947      0.00000     0.94588    0.00465     0.95053
    H  9    0.04931      0.00000     0.94605    0.00464     0.95069
    H 10    0.04432      0.00000     0.95181    0.00387     0.95568
    H 11    0.04934      0.00000     0.94602    0.00464     0.95066
    O 12   -0.46235      1.99999     6.44304    0.01932     8.46235
    C 13   -0.23728      1.99998     4.21668    0.02062     6.23728
    C 14   -0.22225      1.99998     4.20562    0.01665     6.22225
    C 15   -0.22101      1.99998     4.20500    0.01603     6.22101
    C 16   -0.22597      1.99998     4.20857    0.01742     6.22597
    C 17   -0.22467      1.99998     4.20574    0.01895     6.22467
    H 18    0.18157      0.00000     0.81589    0.00254     0.81843
    H 19    0.21115      0.00000     0.78688    0.00198     0.78885
    H 20    0.21340      0.00000     0.78471    0.00189     0.78660
    H 21    0.21114      0.00000     0.78689    0.00197     0.78886
    H 22    0.18040      0.00000     0.81634    0.00326     0.81960
 ====================================================================
 * Total *  0.00000    103.99949    63.62620    0.37430   168.00000

 Normal termination of Gaussian 16 at Wed Jun  5 15:49:25 2024.
