 Gaussian 16, Revision C.01,
 Gaussian 16:  ES64L-G16RevC.01  3-Jul-2019

 --------------------
 # PBEPBE GenECP POpt
 --------------------

 ----------------------
 trans-(H)Ir(PH3)2(NH3)
 ----------------------
 Symbolic Z-matrix:
 Charge =  0 Multiplicity = 1

 SCF Done:  E(RPBE-PBE) =  -1078.33782759     A.U. after   20 cycles
 SCF Done:  E(RPBE-PBE) =  -1078.34404430     A.U. after   17 cycles
 SCF Done:  E(RPBE-PBE) =  -1078.34504537     A.U. after   17 cycles
 SCF Done:  E(RPBE-PBE) =  -1078.34521295     A.U. after   13 cycles
 SCF Done:  E(RPBE-PBE) =  -1078.34523992     A.U. after   12 cycles
 SCF Done:  E(RPBE-PBE) =  -1078.34525405     A.U. after   12 cycles
 SCF Done:  E(RPBE-PBE) =  -1078.34525614     A.U. after   10 cycles
 SCF Done:  E(RPBE-PBE) =  -1078.34525676     A.U. after   10 cycles
 Optimization completed.
    -- Stationary point found.

                         Standard orientation:
 ---------------------------------------------------------------------
 Center     Atomic      Atomic             Coordinates (Angstroms)
 Number     Number       Type             X           Y           Z
 ---------------------------------------------------------------------
      1         77           0       -0.759091   -0.000673    0.000085
      2          6           0        1.311670    0.000049    0.000407
      3         15           0       -0.758301   -2.267370   -0.000231
      4          7           0       -3.007236   -0.001457   -0.000265
      5         15           0       -0.759883    2.270318    0.000402
      6          1           0       -0.193126   -3.020652    1.075829
      7          1           0       -2.034273   -2.937564   -0.000317
      8          1           0       -0.193517   -3.019840   -1.077032
      9          1           0       -0.189888    3.016689   -1.077932
     10          1           0       -2.026123    2.955011    0.004967
     11          1           0       -0.182349    3.016887    1.074542
     12          1           0       -3.378104    0.535850    0.790436
     13          1           0       -3.371013    0.417273   -0.862999
     14          1           0       -3.411289   -0.941160    0.066803
     15          6           0        2.105977   -1.183831    0.000365
     16          6           0        3.505778   -1.196174    0.000581
     17          6           0        4.229531   -0.000191   -0.000055
     18          6           0        3.506131    1.195871   -0.000906
     19          6           0        2.106237    1.183643   -0.000610
     20          1           0        1.638401   -2.172388    0.001778
     21          1           0        4.030466   -2.156672    0.001043
     22          1           0        5.322107   -0.000358    0.000085
     23          1           0        4.031041    2.156256   -0.001693
     24          1           0        1.639165    2.172239   -0.001440
 ---------------------------------------------------------------------

 The electronic state is 1-A.
 Alpha  occ. eigenvalues --  -76.31723 -76.31702 -14.03457  -9.86238  -9.85723
 Alpha  occ. eigenvalues --   -9.85722  -9.85425  -9.85387  -9.85375  -6.33010
 Alpha  occ. eigenvalues --   -6.32990  -4.54689  -4.54663  -4.54598  -4.54581
 Alpha  occ. eigenvalues --   -4.54287  -4.54267  -3.49283  -1.88814  -1.87714
 Alpha  occ. eigenvalues --   -1.84286  -0.83932  -0.74151  -0.64404  -0.64018
 Alpha  occ. eigenvalues --   -0.61057  -0.60420  -0.50978  -0.50731  -0.47574
 Alpha  occ. eigenvalues --   -0.47379  -0.43719  -0.38664  -0.37866  -0.37131
 Alpha  occ. eigenvalues --   -0.36527  -0.36230  -0.35834  -0.35512  -0.35010
 Alpha  occ. eigenvalues --   -0.33232  -0.30767  -0.29693  -0.27379  -0.26581
 Alpha  occ. eigenvalues --   -0.22906  -0.20907  -0.19804  -0.19454  -0.18271
 Alpha  occ. eigenvalues --   -0.14327  -0.13934
 Alpha virt. eigenvalues --   -0.05346  -0.04919  -0.03538  -0.02305  -0.01594
 Alpha virt. eigenvalues --   -0.01338   0.00148   0.00449   0.00574   0.01429
 Alpha virt. eigenvalues --    0.02080   0.02524   0.02693   0.03153   0.03223

 Mulliken charges:
               1
     1  Ir   0.488265
     2  C    2.576743
     3  P   -0.519089
     4  N   -0.667414
     5  P   -0.435800
     6  H    0.081082
     7  H    0.023233
     8  H    0.081554
     9  H    0.079934
    10  H    0.037270
    11  H    0.079618
    12  H    0.275645
    13  H    0.277854
    14  H    0.264308
    15  C   -0.946551
    16  C   -0.560745
    17  C   -0.289686
    18  C   -0.580784
    19  C   -0.779292
    20  H    0.081543
    21  H    0.114692
    22  H    0.121136
    23  H    0.114628
    24  H    0.081857
 Sum of Mulliken charges =  -0.00000

 Dipole moment (field-independent basis, Debye):
    X=             -6.4639    Y=              0.0513    Z=             -0.0097  Tot=              6.4641
 Quadrupole moment (field-independent basis, Debye-Ang):
   XX=            -83.6742   YY=            -83.8313   ZZ=           -102.7375
   XY=             -0.1845   XZ=              0.0241   YZ=             -0.0011

 Normal termination of Gaussian 16 at Wed Jun  5 15:47:54 2024.
