 Gaussian 16, Revision C.01,
 Gaussian 16:  ES64L-G16RevC.01  3-Jul-2019

 ----------------------------------------------------------
 # wb97xd def2TZVPP SCRF=(solvent=dichloromethane) opt freq
 ----------------------------------------------------------

 ----
 c2h6
 ----
 Symbolic Z-matrix:
 Charge =  0 Multiplicity = 1

 SCF Done:  E(RwB97XD) =  -79.8349675809     A.U. after    9 cycles
 SCF Done:  E(RwB97XD) =  -79.8352835450     A.U. after    8 cycles
 SCF Done:  E(RwB97XD) =  -79.8353034569     A.U. after    7 cycles
 Optimization completed.
    -- Stationary point found.

 1\1\GINC-NODE004\FOpt\RwB97XD\def2TZVPP\C2H6\MVANVLEET\29-May-2024\0\\
 # wb97xd def2TZVPP SCRF=(solvent=dichloromethane) opt freq\\c2h6\\0,1\
 H,1.1853884565,-0.0041620079,0.9830209131\C,0.7604442918,-0.0227658466
 ,-0.0211140972\H,1.1672998514,0.8292708549,-0.566760452\H,1.116205729,
 -0.9289196016,-0.5126006019\C,-0.760469194,0.0227156457,0.0211142869\H
 ,-1.1673363457,-0.8294623716,0.5665316394\H,-1.1162246449,0.9287366404
 ,0.5128391028\H,-1.1854081442,0.0043866867,-0.9830307911\\Version=ES64
 L-G16RevC.01\State=1-A\HF=-79.8353035\RMSD=3.712e-09\RMSF=1.696e-04\Di

 Normal termination of Gaussian 16 at Wed May 29 14:55:22 2024.

 ----------------------------------------------------------------------
 #N Geom=AllCheck Guess=TCheck SCRF=Check GenChk RwB97XD/def2TZVPP Freq
 ----------------------------------------------------------------------

 Structure from the checkpoint file:  "c2h6.chk"
 ----
 c2h6
 ----
 Charge =  0 Multiplicity = 1

                         Standard orientation:
 ---------------------------------------------------------------------
 Center     Atomic      Atomic             Coordinates (Angstroms)
 Number     Number       Type             X           Y           Z
 ---------------------------------------------------------------------
      1          1           0        1.157262    0.876556    0.513729
      2          6           0        0.761090    0.000003    0.000005
      3          1           0        1.157292    0.006627   -1.015972
      4          1           0        1.157265   -0.883193    0.502250
      5          6           0       -0.761090   -0.000002   -0.000004
      6          1           0       -1.157293   -0.006896    1.015970
      7          1           0       -1.157262    0.883324   -0.502011
      8          1           0       -1.157265   -0.876418   -0.513967
 ---------------------------------------------------------------------

 SCF Done:  E(RwB97XD) =  -79.8353034569     A.U. after    1 cycles

 The electronic state is 1-A.
 Alpha  occ. eigenvalues --  -10.26759 -10.26737  -0.85145  -0.70914  -0.52085
 Alpha  occ. eigenvalues --   -0.52085  -0.45064  -0.42298  -0.42298
 Alpha virt. eigenvalues --    0.12217   0.16164   0.19327   0.19328   0.20499
 Alpha virt. eigenvalues --    0.20499   0.27138   0.27849   0.31732   0.31733
 Alpha virt. eigenvalues --    0.32643   0.32643   0.47774   0.49434   0.50533

 Mulliken charges:
               1
     1  H    0.073369
     2  C   -0.220055
     3  H    0.073323
     4  H    0.073363
     5  C   -0.220055
     6  H    0.073323
     7  H    0.073363
     8  H    0.073369
 Sum of Mulliken charges =  -0.00000

 Dipole moment (field-independent basis, Debye):
    X=             -0.0000    Y=              0.0000    Z=             -0.0000  Tot=              0.0000
 Quadrupole moment (field-independent basis, Debye-Ang):
   XX=            -15.5048   YY=            -14.7942   ZZ=            -14.7943
   XY=              0.0000   XZ=              0.0001   YZ=              0.0000

  Exact polarizability:      34.318       0.000      31.722      -0.010       0.000      31.717
 Approx polarizability:      27.123      -0.000      27.197      -0.000      -0.000      27.197

                      1                      2                      3
                      A                      A                      A
 Frequencies --    304.1936               828.6717               828.8405
 Red. masses --      1.0078                 1.0584                 1.0585
 Frc consts  --      0.0549                 0.4282                 0.4284
 IR Inten    --      0.0001                 7.1548                 7.1376

                      4                      5                      6
                      A                      A                      A
 Frequencies --   1016.9797              1222.0371              1222.0915
 Red. masses --      3.1096                 1.4715                 1.4714
 Frc consts  --      1.8949                 1.2947                 1.2948
 IR Inten    --      0.0000                 0.0000                 0.0000

                      7                      8                      9
                      A                      A                      A
 Frequencies --   1408.3982              1423.8546              1495.8917
 Red. masses --      1.1980                 1.2784                 1.0169
 Frc consts  --      1.4001                 1.5270                 1.3407
 IR Inten    --      3.0836                 0.0000                 0.0000

                     10                     11                     12
                      A                      A                      A
 Frequencies --   1496.2070              1501.9153              1502.3654
 Red. masses --      1.0169                 1.0610                 1.0610
 Frc consts  --      1.3413                 1.4101                 1.4109
 IR Inten    --      0.0000                14.5957                14.5442

                     13                     14                     15
                      A                      A                      A
 Frequencies --   3051.7012              3054.2219              3111.2166
 Red. masses --      1.0343                 1.0374                 1.1015
 Frc consts  --      5.6753                 5.7016                 6.2822
 IR Inten    --     77.7578                 0.0001                 0.0000

                     16                     17                     18
                      A                      A                      A
 Frequencies --   3112.1180              3133.0238              3133.9310
 Red. masses --      1.1016                 1.1031                 1.1032
 Frc consts  --      6.2863                 6.3798                 6.3838
 IR Inten    --      0.0000                86.3994                86.7524

 - Thermochemistry -
 -------------------
 Temperature   298.150 Kelvin.  Pressure   1.00000 Atm.
 Atom     1 has atomic number  1 and mass   1.00783

 Molecular mass:    30.04695 amu.
 Principal axes and moments of inertia in atomic units:
                           1         2         3
     Eigenvalues --    22.29076  89.71129  89.71164
           X            1.00000  -0.00000  -0.00000
           Y            0.00000   1.00000  -0.00000
           Z            0.00000   0.00000   1.00000
 This molecule is an asymmetric top.
 Rotational symmetry number  1.
 Rotational temperatures (Kelvin)      3.88564     0.96547     0.96547
 Rotational constants (GHZ):          80.96363    20.11721    20.11714
 Zero-point vibrational energy     196472.6 (Joules/Mol)
                                   46.95809 (Kcal/Mol)
 Warning -- explicit consideration of   1 degrees of freedom as
           vibrations may cause significant error
 Vibrational temperatures:    437.67  1192.27  1192.52  1463.21  1758.24
          (Kelvin)           1758.32  2026.37  2048.61  2152.25  2152.71
                             2160.92  2161.57  4390.72  4394.34  4476.35
                             4477.64  4507.72  4509.03

 Zero-point correction=                           0.074832 (Hartree/Particle)
 Thermal correction to Energy=                    0.078320
 Thermal correction to Enthalpy=                  0.079264
 Thermal correction to Gibbs Free Energy=         0.051723
 Sum of electronic and zero-point Energies=            -79.760471
 Sum of electronic and thermal Energies=               -79.756984
 Sum of electronic and thermal Enthalpies=             -79.756039
 Sum of electronic and thermal Free Energies=          -79.783580

                     E (Thermal)             CV                S
                      KCal/Mol        Cal/Mol-Kelvin    Cal/Mol-Kelvin
 Total                   49.146             10.079             57.964
 Electronic               0.000              0.000              0.000
 Translational            0.889              2.981             36.134
 Rotational               0.889              2.981             19.823
 Vibrational             47.369              4.117              2.008
 Vibration     1          0.695              1.666              1.394

 Optimization completed.
    -- Stationary point found.

 1\1\GINC-NODE004\Freq\RwB97XD\def2TZVPP\C2H6\MVANVLEET\29-May-2024\0\\
 #N Geom=AllCheck Guess=TCheck SCRF=Check GenChk RwB97XD/def2TZVPP Freq
 \\c2h6\\0,1\H,1.1853884565,-0.0041620079,0.9830209131\C,0.7604442918,-
 0.0227658466,-0.0211140972\H,1.1672998514,0.8292708549,-0.566760452\H,
 1.116205729,-0.9289196016,-0.5126006019\C,-0.760469194,0.0227156457,0.
 0211142869\H,-1.1673363457,-0.8294623716,0.5665316394\H,-1.1162246449,
 0.9287366404,0.5128391028\H,-1.1854081442,0.0043866867,-0.9830307911\\
 Version=ES64L-G16RevC.01\State=1-A\HF=-79.8353035\RMSD=3.899e-10\RMSF=

 Normal termination of Gaussian 16 at Wed May 29 14:56:03 2024.
