 Gaussian 16, Revision C.01,
 Gaussian 16:  ES64L-G16RevC.01  3-Jul-2019

 ----------------------------------------------------------
 # wb97xd def2TZVPP SCRF=(solvent=dichloromethane) opt freq
 ----------------------------------------------------------

 -----
 MeZPt
 -----
 Symbolic Z-matrix:
 Charge =  2 Multiplicity = 1

 SCF Done:  E(RwB97XD) =  -828.228462558     A.U. after   20 cycles
 SCF Done:  E(RwB97XD) =  -828.385164890     A.U. after   13 cycles
 SCF Done:  E(RwB97XD) =  -828.495700319     A.U. after   15 cycles
 SCF Done:  E(RwB97XD) =  -828.518497764     A.U. after   14 cycles
 SCF Done:  E(RwB97XD) =  -828.536891584     A.U. after   14 cycles
 SCF Done:  E(RwB97XD) =  -828.547942647     A.U. after   14 cycles
 SCF Done:  E(RwB97XD) =  -828.554971406     A.U. after   13 cycles
 SCF Done:  E(RwB97XD) =  -828.557935144     A.U. after   14 cycles
 SCF Done:  E(RwB97XD) =  -828.559824689     A.U. after   13 cycles
 SCF Done:  E(RwB97XD) =  -828.561695662     A.U. after   13 cycles
 SCF Done:  E(RwB97XD) =  -828.563618415     A.U. after   11 cycles
 SCF Done:  E(RwB97XD) =  -828.563638980     A.U. after   10 cycles
 SCF Done:  E(RwB97XD) =  -828.563677420     A.U. after   11 cycles
 SCF Done:  E(RwB97XD) =  -828.563689243     A.U. after   10 cycles
 SCF Done:  E(RwB97XD) =  -828.563697847     A.U. after   10 cycles
 SCF Done:  E(RwB97XD) =  -828.563706451     A.U. after   10 cycles
 SCF Done:  E(RwB97XD) =  -828.563709279     A.U. after   10 cycles
 SCF Done:  E(RwB97XD) =  -828.563711230     A.U. after   10 cycles
 SCF Done:  E(RwB97XD) =  -828.563710914     A.U. after    8 cycles
 Optimization completed.
    -- Stationary point found.
 Normal termination of Gaussian 16 at Thu May 30 14:29:38 2024.

 ----------------------------------------------------------------------
 #N Geom=AllCheck Guess=TCheck SCRF=Check GenChk RwB97XD/def2TZVPP Freq
 ----------------------------------------------------------------------

 Structure from the checkpoint file:  "MeZPt.chk"
 -----
 MeZPt
 -----
 Charge =  2 Multiplicity = 1

                         Standard orientation:
 ---------------------------------------------------------------------
 Center     Atomic      Atomic             Coordinates (Angstroms)
 Number     Number       Type             X           Y           Z
 ---------------------------------------------------------------------
      1         78           0        1.269235    0.116914   -0.076990
      2          6           0       -1.103928   -1.390338   -0.144598
      3          6           0       -1.410766    0.945247   -0.150619
      4          6           0       -2.450784   -1.597952   -0.063781
      5          6           0       -2.774555    0.803716   -0.067604
      6          6           0       -3.309724   -0.488810   -0.013219
      7          1           0       -2.862361   -2.595965   -0.057492
      8          1           0       -3.398281    1.682722   -0.062807
      9          8           0       -4.598206   -0.758672    0.065465
     10          7           0       -0.620203   -0.133860   -0.156952
     11          6           0       -0.061170   -2.445458   -0.363024
     12          1           0       -0.015458   -2.634861   -1.435645
     13          1           0       -0.315125   -3.382970    0.130076
     14          6           0       -0.683319    2.238046   -0.374415
     15          1           0       -0.693991    2.426993   -1.448043
     16          1           0       -1.178959    3.075519    0.115271
     17          7           0        1.289031   -1.979538    0.076170
     18          7           0        0.744284    2.151030    0.062741
     19          6           0        2.331603   -2.648072   -0.735365
     20          1           0        3.309588   -2.335512   -0.378483
     21          1           0        2.244128   -3.731115   -0.637973
     22          1           0        2.216690   -2.363946   -1.777750
     23          6           0        1.488155   -2.313581    1.511704
     24          1           0        1.517117   -3.397169    1.634025
     25          1           0        2.426135   -1.884546    1.853804
     26          1           0        0.669347   -1.904597    2.098248
     27          6           0        1.570323    3.069495   -0.751468
     28          1           0        1.199369    4.091050   -0.653237
     29          1           0        2.596284    3.026048   -0.393747
     30          1           0        1.534313    2.765404   -1.793797
     31          6           0        0.844818    2.550372    1.493419
     32          1           0        1.867934    2.410769    1.832549
     33          1           0        0.569491    3.600662    1.597869
     34          1           0        0.177080    1.939098    2.095028
     35          6           0       -5.540655    0.312503    0.091317
     36          1           0       -6.515639   -0.158318    0.147423
     37          1           0       -5.471133    0.906573   -0.819945
     38          1           0       -5.382935    0.939839    0.968310
 ---------------------------------------------------------------------

 SCF Done:  E(RwB97XD) =  -828.563710914     A.U. after    1 cycles

 The electronic state is 1-A.
 Alpha  occ. eigenvalues --  -19.34268 -14.56820 -14.56655 -14.56631 -10.42974
 Alpha  occ. eigenvalues --  -10.41320 -10.40988 -10.38785 -10.38673 -10.36761
 Alpha  occ. eigenvalues --  -10.35769 -10.35749 -10.35666 -10.35652 -10.35247
 Alpha  occ. eigenvalues --  -10.35005  -4.09878  -2.34825  -2.34522  -2.30780
 Alpha  occ. eigenvalues --   -1.23996  -1.16442  -1.11821  -1.11237  -0.97973
 Alpha  occ. eigenvalues --   -0.97195  -0.89943  -0.87778  -0.86929  -0.86844
 Alpha  occ. eigenvalues --   -0.85660  -0.79950  -0.78664  -0.76541  -0.74320
 Alpha  occ. eigenvalues --   -0.69684  -0.68300  -0.65705  -0.65055  -0.63933
 Alpha  occ. eigenvalues --   -0.63654  -0.62689  -0.62214  -0.62050  -0.61165
 Alpha  occ. eigenvalues --   -0.58968  -0.57657  -0.56767  -0.56015  -0.55295
 Alpha  occ. eigenvalues --   -0.54446  -0.53910  -0.53286  -0.52305  -0.51545
 Alpha  occ. eigenvalues --   -0.51443  -0.50974  -0.50879  -0.50743  -0.49971
 Alpha  occ. eigenvalues --   -0.49825  -0.46886  -0.44649  -0.42193  -0.41298
 Alpha  occ. eigenvalues --   -0.40093  -0.39374  -0.37020  -0.36320
 Alpha virt. eigenvalues --   -0.04843  -0.02625  -0.01289   0.02391   0.05751
 Alpha virt. eigenvalues --    0.07581   0.08453   0.10532   0.10885   0.11173
 Alpha virt. eigenvalues --    0.11759   0.12192   0.12502   0.12665   0.13486

 Mulliken charges:
               1
     1  Pt   0.661259
     2  C    0.124904
     3  C    0.082937
     4  C   -0.198957
     5  C   -0.175380
     6  C    0.327084
     7  H    0.139301
     8  H    0.130209
     9  O   -0.259833
    10  N   -0.162719
    11  C   -0.059608
    12  H    0.139133
    13  H    0.136927
    14  C   -0.069412
    15  H    0.141162
    16  H    0.136842
    17  N   -0.073156
    18  N   -0.074801
    19  C   -0.162657
    20  H    0.117997
    21  H    0.131503
    22  H    0.119304
    23  C   -0.192132
    24  H    0.123487
    25  H    0.126367
    26  H    0.134109
    27  C   -0.161992
    28  H    0.130661
    29  H    0.117992
    30  H    0.119241
    31  C   -0.190973
    32  H    0.126017
    33  H    0.123143
    34  H    0.133518
    35  C   -0.111936
    36  H    0.129007
    37  H    0.120371
    38  H    0.121078
 Sum of Mulliken charges =   2.00000

 Dipole moment (field-independent basis, Debye):
    X=              1.2954    Y=              1.5090    Z=              0.1984  Tot=              1.9986
 Quadrupole moment (field-independent basis, Debye-Ang):
   XX=            -52.7540   YY=            -63.3933   ZZ=           -106.8295
   XY=             -8.8623   XZ=              1.0540   YZ=              0.2194

  Exact polarizability:     295.525      -3.651     267.912      -3.335      -0.406     176.907
 Approx polarizability:     236.119      -0.147     226.576      -2.991      -0.546     168.095

                      1                      2                      3
                      A                      A                      A
 Frequencies --     56.8295                67.7650               105.8675
 Red. masses --      3.6252                 3.0746                 3.5746
 Frc consts  --      0.0069                 0.0083                 0.0236
 IR Inten    --      0.9093                 0.6476                 1.3022

                      4                      5                      6
                      A                      A                      A
 Frequencies --    121.4198               162.6187               169.2086
 Red. masses --      3.1024                 3.1182                 3.2059
 Frc consts  --      0.0269                 0.0486                 0.0541
 IR Inten    --      8.7961                 2.4671                 0.8480

                      7                      8                      9
                      A                      A                      A
 Frequencies --    194.5862               204.8720               220.0866
 Red. masses --      2.9454                 2.0784                 1.8939
 Frc consts  --      0.0657                 0.0514                 0.0540
 IR Inten    --      0.4176                 1.3330                 3.2189

                     10                     11                     12
                      A                      A                      A
 Frequencies --    227.7811               240.6090               244.6826
 Red. masses --      1.3893                 1.2301                 1.8922
 Frc consts  --      0.0425                 0.0420                 0.0667
 IR Inten    --      1.4377                 2.0487                 4.1523

                     13                     14                     15
                      A                      A                      A
 Frequencies --    263.2464               267.6535               280.5321
 Red. masses --      2.4205                 3.1777                 1.6051
 Frc consts  --      0.0988                 0.1341                 0.0744
 IR Inten    --      0.1239                 1.1945                 6.0160

                     16                     17                     18
                      A                      A                      A
 Frequencies --    284.7011               288.2849               294.3256
 Red. masses --      2.1603                 2.1307                 1.5757
 Frc consts  --      0.1032                 0.1043                 0.0804
 IR Inten    --      2.4534                 3.4501                 2.5626

                     19                     20                     21
                      A                      A                      A
 Frequencies --    304.6311               320.7812               365.7331
 Red. masses --      2.3640                 3.2052                 3.3106
 Frc consts  --      0.1293                 0.1943                 0.2609
 IR Inten    --      1.5560                 0.6040                 4.3308

                     22                     23                     24
                      A                      A                      A
 Frequencies --    415.3330               428.0666               453.9309
 Red. masses --      2.4278                 2.4077                 2.7345
 Frc consts  --      0.2467                 0.2599                 0.3320
 IR Inten    --      0.5374                 1.3403                 0.4018

                     25                     26                     27
                      A                      A                      A
 Frequencies --    491.0595               523.6553               534.6041
 Red. masses --      3.0105                 3.2243                 3.0868
 Frc consts  --      0.4277                 0.5209                 0.5198
 IR Inten    --      5.3760                16.8525                 1.1826

                     28                     29                     30
                      A                      A                      A
 Frequencies --    550.6416               571.6202               622.5296
 Red. masses --      3.2733                 3.4966                 4.2259
 Frc consts  --      0.5848                 0.6732                 0.9649
 IR Inten    --      5.4044                14.8075                 3.4739

                     31                     32                     33
                      A                      A                      A
 Frequencies --    631.8749               694.6779               718.6685
 Red. masses --      5.4934                 5.6077                 3.5787
 Frc consts  --      1.2923                 1.5944                 1.0890
 IR Inten    --     17.7887                 4.6557                 1.5437

                     34                     35                     36
                      A                      A                      A
 Frequencies --    747.0954               876.2694               883.3034
 Red. masses --      3.2096                 2.0936                 2.5763
 Frc consts  --      1.0555                 0.9472                 1.1843
 IR Inten    --      3.8228                43.5586                19.0876

                     37                     38                     39
                      A                      A                      A
 Frequencies --    907.1328               915.7280               957.5952
 Red. masses --      2.1203                 1.7015                 3.7481
 Frc consts  --      1.0280                 0.8407                 2.0250
 IR Inten    --     46.6107                44.4030                22.6117

                     40                     41                     42
                      A                      A                      A
 Frequencies --    990.6932               998.8750              1000.7594
 Red. masses --      2.3501                 2.3173                 2.7454
 Frc consts  --      1.3590                 1.3622                 1.6200
 IR Inten    --     17.5634                22.8391                17.0326

                     43                     44                     45
                      A                      A                      A
 Frequencies --   1019.9223              1044.2003              1047.5268
 Red. masses --      2.5904                 1.7946                 1.6714
 Frc consts  --      1.5876                 1.1529                 1.0806
 IR Inten    --     90.8317                10.5813                10.6580

                     46                     47                     48
                      A                      A                      A
 Frequencies --   1057.2084              1070.9074              1131.4396
 Red. masses --      3.2320                 3.9929                 1.2893
 Frc consts  --      2.1284                 2.6980                 0.9724
 IR Inten    --     30.4367                 5.0291                 2.0989

                     49                     50                     51
                      A                      A                      A
 Frequencies --   1136.7838              1141.6980              1183.2000
 Red. masses --      1.2823                 4.5064                 1.6452
 Frc consts  --      0.9763                 3.4608                 1.3570
 IR Inten    --      2.0404                42.8363                 2.3377

                     52                     53                     54
                      A                      A                      A
 Frequencies --   1184.8982              1187.8164              1209.5706
 Red. masses --      1.2773                 1.6075                 1.5158
 Frc consts  --      1.0566                 1.3363                 1.3067
 IR Inten    --      0.8880                 8.5890                58.3089

                     55                     56                     57
                      A                      A                      A
 Frequencies --   1220.8112              1227.3541              1236.7822
 Red. masses --      1.6181                 1.7133                 1.9309
 Frc consts  --      1.4209                 1.5206                 1.7402
 IR Inten    --      2.4521                38.7189                81.0099

                     58                     59                     60
                      A                      A                      A
 Frequencies --   1268.9741              1274.8252              1286.1008
 Red. masses --      1.4104                 1.9972                 2.0852
 Frc consts  --      1.3381                 1.9123                 2.0321
 IR Inten    --     16.1869                 3.4120                 2.5371

                     61                     62                     63
                      A                      A                      A
 Frequencies --   1325.0919              1327.8086              1331.5873
 Red. masses --      2.6551                 1.5033                 1.7614
 Frc consts  --      2.7468                 1.5616                 1.8401
 IR Inten    --     22.5906                12.2504                 6.8022

                     64                     65                     66
                      A                      A                      A
 Frequencies --   1391.0191              1403.2804              1419.2146
 Red. masses --      1.9272                 1.4322                 2.6798
 Frc consts  --      2.1971                 1.6617                 3.1801
 IR Inten    --    264.5519                 4.7789               200.7431

                     67                     68                     69
                      A                      A                      A
 Frequencies --   1454.6423              1456.3772              1473.9504
 Red. masses --      1.1530                 1.1453                 1.1805
 Frc consts  --      1.4374                 1.4312                 1.5111
 IR Inten    --      3.9080                 5.9386                18.1948

                     70                     71                     72
                      A                      A                      A
 Frequencies --   1475.3197              1479.8902              1483.5528
 Red. masses --      1.1181                 1.0586                 1.1972
 Frc consts  --      1.4338                 1.3660                 1.5524
 IR Inten    --     12.7351                 8.9750                28.8772

                     73                     74                     75
                      A                      A                      A
 Frequencies --   1485.4790              1486.8194              1489.6360
 Red. masses --      1.0896                 1.1220                 1.0964
 Frc consts  --      1.4166                 1.4614                 1.4334
 IR Inten    --     11.1566                 0.8077                 8.4180

                     76                     77                     78
                      A                      A                      A
 Frequencies --   1496.9231              1498.7100              1501.5491
 Red. masses --      1.0702                 1.0797                 1.0987
 Frc consts  --      1.4128                 1.4289                 1.4595
 IR Inten    --     11.8497                32.8645                23.1480

                     79                     80                     81
                      A                      A                      A
 Frequencies --   1503.3203              1505.2713              1506.1331
 Red. masses --      1.0649                 1.0469                 1.0682
 Frc consts  --      1.4180                 1.3975                 1.4276
 IR Inten    --     31.7447                36.0310                36.8592

                     82                     83                     84
                      A                      A                      A
 Frequencies --   1506.6029              1507.2870              1541.5032
 Red. masses --      1.0585                 1.0489                 2.8368
 Frc consts  --      1.4155                 1.4040                 3.9716
 IR Inten    --     12.1929                42.9187               262.7420

                     85                     86                     87
                      A                      A                      A
 Frequencies --   1546.6949              1637.8736              1697.6308
 Red. masses --      4.0747                 7.7853                 6.8824
 Frc consts  --      5.7432                12.3051                11.6863
 IR Inten    --     81.1782               153.8906               466.2159

                     88                     89                     90
                      A                      A                      A
 Frequencies --   3058.8107              3060.6887              3061.7924
 Red. masses --      1.0344                 1.0364                 1.0327
 Frc consts  --      5.7025                 5.7202                 5.7040
 IR Inten    --     13.6561                25.2228                38.6357

                     91                     92                     93
                      A                      A                      A
 Frequencies --   3064.4905              3068.4888              3090.5380
 Red. masses --      1.0360                 1.0352                 1.0607
 Frc consts  --      5.7323                 5.7430                 5.9693
 IR Inten    --     29.4220                16.5267                 2.7398

                     94                     95                     96
                      A                      A                      A
 Frequencies --   3090.7532              3144.3131              3144.9206
 Red. masses --      1.0603                 1.1069                 1.1083
 Frc consts  --      5.9676                 6.4480                 6.4581
 IR Inten    --      5.4478                 5.7608                17.3212

                     97                     98                     99
                      A                      A                      A
 Frequencies --   3145.5288              3145.8045              3149.7845
 Red. masses --      1.1060                 1.1056                 1.1014
 Frc consts  --      6.4478                 6.4462                 6.4380
 IR Inten    --      0.6433                13.8424                11.2554

                    100                    101                    102
                      A                      A                      A
 Frequencies --   3152.3221              3156.9328              3172.2799
 Red. masses --      1.1020                 1.1022                 1.1068
 Frc consts  --      6.4521                 6.4720                 6.5622
 IR Inten    --     11.6665                 8.1255                 5.9130

                    103                    104                    105
                      A                      A                      A
 Frequencies --   3177.9780              3180.8560              3182.8929
 Red. masses --      1.1075                 1.1072                 1.1069
 Frc consts  --      6.5903                 6.6005                 6.6068
 IR Inten    --      7.0362                 7.6551                 4.5069

                    106                    107                    108
                      A                      A                      A
 Frequencies --   3198.8392              3246.6197              3268.0106
 Red. masses --      1.1038                 1.0945                 1.0927
 Frc consts  --      6.6546                 6.7970                 6.8756
 IR Inten    --      9.2052                 3.7655                 2.5522

 - Thermochemistry -
 -------------------
 Temperature   298.150 Kelvin.  Pressure   1.00000 Atm.
 Atom     1 has atomic number 78 and mass 194.96480

 Molecular mass:   418.13326 amu.
 Principal axes and moments of inertia in atomic units:
                           1         2         3
     Eigenvalues --  3328.760236415.020498976.24574
           X            0.99957  -0.02923   0.00281
           Y            0.02923   0.99957   0.00063
           Z           -0.00282  -0.00055   1.00000
 This molecule is an asymmetric top.
 Rotational symmetry number  1.
 Warning -- assumption of classical behavior for rotation
           may cause significant error
 Rotational temperatures (Kelvin)      0.02602     0.01350     0.00965
 Rotational constants (GHZ):           0.54217     0.28133     0.20106
 Zero-point vibrational energy     875822.9 (Joules/Mol)
                                  209.32671 (Kcal/Mol)
 Warning -- explicit consideration of  29 degrees of freedom as
           vibrations may cause significant error
 Vibrational temperatures:     81.76    97.50   152.32   174.70   233.97
          (Kelvin)            243.45   279.97   294.77   316.66   327.73
                              346.18   352.04   378.75   385.09   403.62
                              409.62   414.78   423.47   438.30   461.53
                              526.21   597.57   615.89   653.11   706.53
                              753.42   769.18   792.25   822.43   895.68
                              909.13   999.49  1034.00  1074.90  1260.76
                             1270.88  1305.16  1317.53  1377.77  1425.39
                             1437.16  1439.87  1467.44  1502.37  1507.16
                             1521.09  1540.80  1627.89  1635.58  1642.65
                             1702.36  1704.80  1709.00  1740.30  1756.47
                             1765.89  1779.45  1825.77  1834.19  1850.41
                             1906.51  1910.42  1915.86  2001.37  2019.01
                             2041.93  2092.91  2095.40  2120.69  2122.66
                             2129.23  2134.50  2137.27  2139.20  2143.25
                             2153.74  2156.31  2160.39  2162.94  2165.75
                             2166.99  2167.67  2168.65  2217.88  2225.35
                             2356.53  2442.51  4400.95  4403.65  4405.24
                             4409.12  4414.87  4446.59  4446.90  4523.97
                             4524.84  4525.71  4526.11  4531.84  4535.49
                             4542.12  4564.20  4572.40  4576.54  4579.47
                             4602.42  4671.16  4701.94

 Zero-point correction=                           0.333583 (Hartree/Particle)
 Thermal correction to Energy=                    0.351025
 Thermal correction to Enthalpy=                  0.351970
 Thermal correction to Gibbs Free Energy=         0.289324
 Sum of electronic and zero-point Energies=           -828.230128
 Sum of electronic and thermal Energies=              -828.212686
 Sum of electronic and thermal Enthalpies=            -828.211741
 Sum of electronic and thermal Free Energies=         -828.274387

                     E (Thermal)             CV                S
                      KCal/Mol        Cal/Mol-Kelvin    Cal/Mol-Kelvin
 Total                  220.272             68.015            131.848
 Electronic               0.000              0.000              0.000
 Translational            0.889              2.981             43.982
 Rotational               0.889              2.981             33.616
 Vibrational            218.494             62.053             54.250
 Vibration     1          0.596              1.975              4.564
 Vibration     2          0.598              1.970              4.217
 Vibration     3          0.605              1.945              3.343
 Vibration     4          0.609              1.931              3.078
 Vibration     5          0.623              1.888              2.519
 Vibration     6          0.625              1.880              2.444
 Vibration     7          0.635              1.847              2.184
 Vibration     8          0.640              1.833              2.089
 Vibration     9          0.647              1.810              1.958
 Vibration    10          0.651              1.799              1.896
 Vibration    11          0.658              1.778              1.798
 Vibration    12          0.660              1.772              1.769
 Vibration    13          0.670              1.740              1.640
 Vibration    14          0.673              1.733              1.611
 Vibration    15          0.680              1.710              1.530
 Vibration    16          0.683              1.702              1.505
 Vibration    17          0.685              1.695              1.484
 Vibration    18          0.689              1.684              1.449
 Vibration    19          0.696              1.665              1.391
 Vibration    20          0.706              1.634              1.306
 Vibration    21          0.739              1.543              1.098
 Vibration    22          0.779              1.437              0.908
 Vibration    23          0.790              1.409              0.865
 Vibration    24          0.812              1.352              0.784
 Vibration    25          0.847              1.270              0.681
 Vibration    26          0.879              1.198              0.602
 Vibration    27          0.890              1.173              0.577
 Vibration    28          0.906              1.138              0.543
 Vibration    29          0.928              1.093              0.501

 Optimization completed.
    -- Stationary point found.
 Normal termination of Gaussian 16 at Thu May 30 15:45:15 2024.
