 Gaussian 16, Revision C.01,
 Gaussian 16:  ES64L-G16RevC.01  3-Jul-2019

 ----------------------------------------------------------
 # wb97xd def2TZVPP SCRF=(solvent=dichloromethane) opt freq
 ----------------------------------------------------------

 ---------
 MeZPtMeMe
 ---------
 Symbolic Z-matrix:
 Charge =  2 Multiplicity = 1

 SCF Done:  E(RwB97XD) =  -908.372748046     A.U. after   16 cycles
 SCF Done:  E(RwB97XD) =  -908.374487963     A.U. after   13 cycles
 SCF Done:  E(RwB97XD) =  -908.374770336     A.U. after   12 cycles
 SCF Done:  E(RwB97XD) =  -908.375153629     A.U. after   11 cycles
 SCF Done:  E(RwB97XD) =  -908.375232145     A.U. after   11 cycles
 SCF Done:  E(RwB97XD) =  -908.375272013     A.U. after   10 cycles
 SCF Done:  E(RwB97XD) =  -908.375276850     A.U. after   10 cycles
 SCF Done:  E(RwB97XD) =  -908.375275682     A.U. after   10 cycles
 SCF Done:  E(RwB97XD) =  -908.375284869     A.U. after    9 cycles
 SCF Done:  E(RwB97XD) =  -908.375287253     A.U. after    9 cycles
 SCF Done:  E(RwB97XD) =  -908.375287789     A.U. after    8 cycles
 SCF Done:  E(RwB97XD) =  -908.375288437     A.U. after    5 cycles
 Optimization completed.
    -- Stationary point found.
 Normal termination of Gaussian 16 at Wed May 29 18:56:08 2024.

 ----------------------------------------------------------------------
 #N Geom=AllCheck Guess=TCheck SCRF=Check GenChk RwB97XD/def2TZVPP Freq
 ----------------------------------------------------------------------

 Structure from the checkpoint file:  "MeZPtMeMe.chk"
 ---------
 MeZPtMeMe
 ---------
 Charge =  2 Multiplicity = 1

                         Standard orientation:
 ---------------------------------------------------------------------
 Center     Atomic      Atomic             Coordinates (Angstroms)
 Number     Number       Type             X           Y           Z
 ---------------------------------------------------------------------
      1         78           0        1.117714    0.061503    0.035707
      2          6           0       -1.390709   -1.363559   -0.340544
      3          6           0       -1.620890    0.971311   -0.286956
      4          6           0       -2.738094   -1.543020   -0.201225
      5          6           0       -2.985371    0.882372   -0.140958
      6          6           0       -3.552781   -0.400204   -0.085612
      7          1           0       -3.184586   -2.525096   -0.159655
      8          1           0       -3.584848    1.774349   -0.059688
      9          8           0       -4.840561   -0.630405    0.087297
     10          7           0       -0.882195   -0.128283   -0.377615
     11          6           0       -0.333198   -2.422451   -0.515193
     12          1           0       -0.122305   -2.515603   -1.580618
     13          1           0       -0.658267   -3.395563   -0.151931
     14          6           0       -0.809247    2.233022   -0.432893
     15          1           0       -0.700242    2.431672   -1.498900
     16          1           0       -1.302349    3.094124    0.014021
     17          7           0        0.958458   -2.047363    0.170180
     18          7           0        0.581299    2.110906    0.146583
     19          6           0        3.085427    0.217291    0.609324
     20          1           0        3.136137   -0.019656    1.675837
     21          1           0        3.723848   -0.479088    0.066476
     22          1           0        3.479503    1.221788    0.460560
     23          6           0        2.055077   -2.873181   -0.385014
     24          1           0        2.970714   -2.657515    0.156001
     25          1           0        1.806698   -3.927631   -0.268213
     26          1           0        2.192627   -2.657098   -1.439418
     27          6           0        0.832765   -2.350635    1.626275
     28          1           0        0.665005   -3.419218    1.755231
     29          1           0        1.750404   -2.065220    2.132667
     30          1           0       -0.010606   -1.807623    2.049210
     31          6           0        1.455038    3.101020   -0.524867
     32          1           0        1.031464    4.096850   -0.396711
     33          1           0        2.441717    3.072513   -0.073916
     34          1           0        1.527195    2.875886   -1.583863
     35          6           0        0.527938    2.437999    1.598438
     36          1           0        1.527601    2.365976    2.018092
     37          1           0        0.149538    3.450796    1.730247
     38          1           0       -0.133479    1.737829    2.108032
     39          6           0       -5.732662    0.466588    0.281329
     40          1           0       -6.712562    0.024298    0.421359
     41          1           0       -5.742769    1.114620   -0.594737
     42          1           0       -5.454164    1.032614    1.170598
     43          6           0        1.680993    0.186632   -1.917885
     44          1           0        1.835467   -0.818306   -2.294623
     45          1           0        0.864493    0.670637   -2.447023
     46          1           0        2.597897    0.763749   -1.971886
 ---------------------------------------------------------------------

 SCF Done:  E(RwB97XD) =  -908.375288437     A.U. after    2 cycles

 The electronic state is 1-A.
 Alpha  occ. eigenvalues --  -19.34268 -14.58362 -14.58323 -14.52986 -10.43029
 Alpha  occ. eigenvalues --  -10.40994 -10.40600 -10.39307 -10.39169 -10.36799
 Alpha  occ. eigenvalues --  -10.36797 -10.36741 -10.36213 -10.36209 -10.36202
 Alpha  occ. eigenvalues --  -10.35224 -10.35032 -10.30970  -4.15606  -2.39387
 Alpha  occ. eigenvalues --   -2.38721  -2.38593  -1.23970  -1.15740  -1.12708
 Alpha  occ. eigenvalues --   -1.11872  -0.97764  -0.96726  -0.90000  -0.88043
 Alpha  occ. eigenvalues --   -0.87835  -0.87718  -0.85763  -0.85086  -0.81435
 Alpha  occ. eigenvalues --   -0.79855  -0.79157  -0.77017  -0.74358  -0.69657
 Alpha  occ. eigenvalues --   -0.68277  -0.66174  -0.65208  -0.64679  -0.63948
 Alpha  occ. eigenvalues --   -0.63473  -0.63329  -0.62465  -0.61198  -0.59217
 Alpha  occ. eigenvalues --   -0.58298  -0.57797  -0.57177  -0.56932  -0.55751
 Alpha  occ. eigenvalues --   -0.55066  -0.55000  -0.54339  -0.53961  -0.53073
 Alpha  occ. eigenvalues --   -0.53022  -0.52662  -0.52411  -0.51836  -0.51522
 Alpha  occ. eigenvalues --   -0.51451  -0.51062  -0.50985  -0.49356  -0.49175
 Alpha  occ. eigenvalues --   -0.46880  -0.46004  -0.44339  -0.43585  -0.41512
 Alpha  occ. eigenvalues --   -0.40816  -0.40339  -0.37770
 Alpha virt. eigenvalues --   -0.06803  -0.02745  -0.01726  -0.01302   0.05844
 Alpha virt. eigenvalues --    0.08618   0.08811   0.09026   0.10033   0.10536
 Alpha virt. eigenvalues --    0.11031   0.11567   0.11762   0.12104   0.12314

 Mulliken charges:
               1
     1  Pt   0.820942
     2  C    0.108971
     3  C    0.096798
     4  C   -0.162751
     5  C   -0.156578
     6  C    0.321875
     7  H    0.137432
     8  H    0.130764
     9  O   -0.259419
    10  N   -0.274108
    11  C   -0.089020
    12  H    0.152918
    13  H    0.141062
    14  C   -0.101759
    15  H    0.150970
    16  H    0.139484
    17  N   -0.030787
    18  N   -0.037355
    19  C   -0.537292
    20  H    0.123221
    21  H    0.122368
    22  H    0.112834
    23  C   -0.182217
    24  H    0.124006
    25  H    0.135552
    26  H    0.125627
    27  C   -0.195245
    28  H    0.131428
    29  H    0.137344
    30  H    0.135888
    31  C   -0.185750
    32  H    0.137665
    33  H    0.128465
    34  H    0.119345
    35  C   -0.197374
    36  H    0.135547
    37  H    0.129650
    38  H    0.133770
    39  C   -0.111351
    40  H    0.128979
    41  H    0.120085
    42  H    0.120353
    43  C   -0.377225
    44  H    0.130966
    45  H    0.130913
    46  H    0.133014
 Sum of Mulliken charges =   2.00000

 Dipole moment (field-independent basis, Debye):
    X=             -2.1125    Y=              1.2102    Z=              0.6662  Tot=              2.5241
 Quadrupole moment (field-independent basis, Debye-Ang):
   XX=            -73.8637   YY=            -72.8611   ZZ=           -114.1158
   XY=            -10.0232   XZ=             -2.2788   YZ=              0.0156

  Exact polarizability:     349.706      -1.695     298.035      -2.179       0.082     214.871
 Approx polarizability:     278.284       0.854     258.921      -3.986      -0.222     211.335

                      1                      2                      3
                      A                      A                      A
 Frequencies --     67.5521                98.3356               118.6319
 Red. masses --      3.0541                 3.4236                 3.1183
 Frc consts  --      0.0082                 0.0195                 0.0259
 IR Inten    --      2.1052                 0.1360                 1.5896

                      4                      5                      6
                      A                      A                      A
 Frequencies --    139.4658               159.2033               164.8062
 Red. masses --      1.6690                 3.1463                 1.5851
 Frc consts  --      0.0191                 0.0470                 0.0254
 IR Inten    --      3.5418                 4.1516                 2.5043

                      7                      8                      9
                      A                      A                      A
 Frequencies --    166.2358               179.7036               186.3552
 Red. masses --      1.4982                 2.9383                 3.1861
 Frc consts  --      0.0244                 0.0559                 0.0652
 IR Inten    --      0.4069                 0.7008                 0.7693

                     10                     11                     12
                      A                      A                      A
 Frequencies --    199.1089               218.2255               229.7933
 Red. masses --      1.9415                 2.2375                 2.4231
 Frc consts  --      0.0453                 0.0628                 0.0754
 IR Inten    --      0.3745                 0.1434                 0.4514

                     13                     14                     15
                      A                      A                      A
 Frequencies --    235.5002               241.8374               247.6370
 Red. masses --      3.2917                 2.9335                 2.9150
 Frc consts  --      0.1076                 0.1011                 0.1053
 IR Inten    --      1.6765                 0.6377                 0.7313

                     16                     17                     18
                      A                      A                      A
 Frequencies --    255.3142               266.4200               274.6740
 Red. masses --      1.8801                 1.8059                 1.5163
 Frc consts  --      0.0722                 0.0755                 0.0674
 IR Inten    --      0.4441                 0.7513                 0.2777

                     19                     20                     21
                      A                      A                      A
 Frequencies --    286.1620               296.8036               311.6658
 Red. masses --      1.8223                 1.0860                 1.8008
 Frc consts  --      0.0879                 0.0564                 0.1031
 IR Inten    --      0.5192                 0.2452                 4.5128

                     22                     23                     24
                      A                      A                      A
 Frequencies --    320.5351               330.3524               335.9154
 Red. masses --      1.6043                 2.5895                 3.2025
 Frc consts  --      0.0971                 0.1665                 0.2129
 IR Inten    --      1.1489                 9.3412                 0.3848

                     25                     26                     27
                      A                      A                      A
 Frequencies --    343.2395               354.5990               374.9701
 Red. masses --      3.0568                 2.1368                 2.9619
 Frc consts  --      0.2122                 0.1583                 0.2454
 IR Inten    --      2.1590                 3.3209                15.5411

                     28                     29                     30
                      A                      A                      A
 Frequencies --    425.6310               439.6861               471.1405
 Red. masses --      2.3205                 2.3431                 2.7934
 Frc consts  --      0.2477                 0.2669                 0.3653
 IR Inten    --      0.8787                 7.1062                 2.0299

                     31                     32                     33
                      A                      A                      A
 Frequencies --    499.0387               524.7602               541.3153
 Red. masses --      2.7853                 3.2469                 2.9028
 Frc consts  --      0.4087                 0.5268                 0.5012
 IR Inten    --      6.0166                24.0385                10.6237

                     34                     35                     36
                      A                      A                      A
 Frequencies --    543.9204               570.2372               575.3773
 Red. masses --      3.6237                 3.6266                 3.4619
 Frc consts  --      0.6316                 0.6948                 0.6753
 IR Inten    --     12.5291                20.4277                20.8871

                     37                     38                     39
                      A                      A                      A
 Frequencies --    580.0500               615.7638               636.2697
 Red. masses --      4.7016                 5.1817                 3.6880
 Frc consts  --      0.9320                 1.1576                 0.8797
 IR Inten    --     34.3742                 0.8510                 1.5096

                     40                     41                     42
                      A                      A                      A
 Frequencies --    694.7123               725.1236               771.2923
 Red. masses --      5.5753                 3.7378                 3.0948
 Frc consts  --      1.5854                 1.1579                 1.0847
 IR Inten    --      6.1697                 1.5912                 5.3134

                     43                     44                     45
                      A                      A                      A
 Frequencies --    827.4771               864.8156               874.8515
 Red. masses --      1.2925                 2.1519                 2.3322
 Frc consts  --      0.5214                 0.9483                 1.0517
 IR Inten    --     10.9828                48.1951                31.5124

                     46                     47                     48
                      A                      A                      A
 Frequencies --    879.1534               902.3700               903.8706
 Red. masses --      1.5041                 1.4606                 1.3620
 Frc consts  --      0.6849                 0.7007                 0.6556
 IR Inten    --     15.6466                17.7196                17.0386

                     49                     50                     51
                      A                      A                      A
 Frequencies --    910.2393               920.6578               946.6999
 Red. masses --      1.1563                 1.5590                 3.4751
 Frc consts  --      0.5645                 0.7786                 1.8350
 IR Inten    --      5.6597                33.0397                31.3426

                     52                     53                     54
                      A                      A                      A
 Frequencies --    977.6317               989.1397               993.3404
 Red. masses --      2.7593                 2.8307                 2.5143
 Frc consts  --      1.5538                 1.6318                 1.4617
 IR Inten    --      6.2725                43.7349                41.8865

                     55                     56                     57
                      A                      A                      A
 Frequencies --   1009.0171              1044.0856              1050.0298
 Red. masses --      2.4301                 1.7070                 4.0820
 Frc consts  --      1.4577                 1.0964                 2.6517
 IR Inten    --     25.6865                 7.1668                53.7318

                     58                     59                     60
                      A                      A                      A
 Frequencies --   1051.5999              1064.4202              1113.4964
 Red. masses --      1.8018                 3.6760                 3.8813
 Frc consts  --      1.1739                 2.4539                 2.8353
 IR Inten    --     17.8508                12.9502               224.2459

                     61                     62                     63
                      A                      A                      A
 Frequencies --   1137.9418              1142.9903              1182.1041
 Red. masses --      1.2749                 1.2694                 1.5810
 Frc consts  --      0.9726                 0.9771                 1.3016
 IR Inten    --      1.0318                 3.6099                 9.6318

                     64                     65                     66
                      A                      A                      A
 Frequencies --   1184.1247              1192.0944              1204.6426
 Red. masses --      1.2798                 1.6556                 1.6010
 Frc consts  --      1.0573                 1.3862                 1.3688
 IR Inten    --      0.7357                 4.0169                48.1420

                     67                     68                     69
                      A                      A                      A
 Frequencies --   1222.8976              1226.4598              1238.6775
 Red. masses --      1.5446                 1.5656                 1.9081
 Frc consts  --      1.3609                 1.3875                 1.7249
 IR Inten    --      3.2436                38.6707                44.2135

                     70                     71                     72
                      A                      A                      A
 Frequencies --   1262.5573              1273.8301              1280.5098
 Red. masses --      1.4822                 1.8573                 1.8445
 Frc consts  --      1.3921                 1.7756                 1.7819
 IR Inten    --      6.4893                 2.2013                 1.3253

                     73                     74                     75
                      A                      A                      A
 Frequencies --   1286.3820              1321.1414              1325.4456
 Red. masses --      1.1930                 1.1657                 1.4231
 Frc consts  --      1.1632                 1.1988                 1.4730
 IR Inten    --     37.5956                40.9998                27.7164

                     76                     77                     78
                      A                      A                      A
 Frequencies --   1330.8202              1341.1021              1391.1926
 Red. masses --      1.5117                 3.5863                 2.0955
 Frc consts  --      1.5774                 3.8003                 2.3896
 IR Inten    --     11.2033                 6.9620               326.3733

                     79                     80                     81
                      A                      A                      A
 Frequencies --   1407.5856              1420.8165              1454.7522
 Red. masses --      1.5345                 1.9182                 1.1019
 Frc consts  --      1.7913                 2.2815                 1.3740
 IR Inten    --     57.9775               203.6323                 7.5217

                     82                     83                     84
                      A                      A                      A
 Frequencies --   1457.9095              1461.4025              1465.8430
 Red. masses --      1.0813                 1.1153                 1.0779
 Frc consts  --      1.3542                 1.4034                 1.3646
 IR Inten    --     10.6755                 5.4278                 8.2540

                     85                     86                     87
                      A                      A                      A
 Frequencies --   1468.8747              1477.5331              1480.8082
 Red. masses --      1.0728                 1.1142                 1.3340
 Frc consts  --      1.3637                 1.4332                 1.7234
 IR Inten    --      8.3252                14.5485                12.8140

                     88                     89                     90
                      A                      A                      A
 Frequencies --   1482.9435              1486.2972              1487.7041
 Red. masses --      1.1091                 1.0997                 1.1042
 Frc consts  --      1.4371                 1.4313                 1.4399
 IR Inten    --      2.8003                12.1208                16.6795

                     91                     92                     93
                      A                      A                      A
 Frequencies --   1492.5392              1499.4843              1502.5126
 Red. masses --      1.0727                 1.0931                 1.0826
 Frc consts  --      1.4079                 1.4481                 1.4400
 IR Inten    --      2.8459                27.0780                 3.2569

                     94                     95                     96
                      A                      A                      A
 Frequencies --   1503.5813              1505.8898              1510.6626
 Red. masses --      1.0823                 1.0895                 1.0660
 Frc consts  --      1.4416                 1.4556                 1.4333
 IR Inten    --     41.9512                 6.6708                19.0428

                     97                     98                     99
                      A                      A                      A
 Frequencies --   1510.8984              1515.0142              1518.3041
 Red. masses --      1.0537                 1.0541                 1.0576
 Frc consts  --      1.4172                 1.4255                 1.4364
 IR Inten    --     16.2780                40.8441                34.4855

                    100                    101                    102
                      A                      A                      A
 Frequencies --   1528.7750              1537.2053              1538.7825
 Red. masses --      1.0651                 1.4393                 1.7096
 Frc consts  --      1.4667                 2.0039                 2.3851
 IR Inten    --     47.6206               157.5129                26.2554

                    103                    104                    105
                      A                      A                      A
 Frequencies --   1544.6134              1645.8566              1685.7992
 Red. masses --      3.2963                 8.4529                 6.9230
 Frc consts  --      4.6336                13.4908                11.5920
 IR Inten    --     68.4431               131.1188               573.4867

                    106                    107                    108
                      A                      A                      A
 Frequencies --   3037.1837              3060.3917              3074.9084
 Red. masses --      1.0344                 1.0328                 1.0329
 Frc consts  --      5.6221                 5.6993                 5.7540
 IR Inten    --     27.8256                33.4129                 6.1259

                    109                    110                    111
                      A                      A                      A
 Frequencies --   3075.6096              3084.6538              3085.5242
 Red. masses --      1.0326                 1.0343                 1.0356
 Frc consts  --      5.7549                 5.7984                 5.8088
 IR Inten    --      8.5629                 6.3134                33.3624

                    112                    113                    114
                      A                      A                      A
 Frequencies --   3088.1633              3098.8806              3100.2366
 Red. masses --      1.0305                 1.0612                 1.0604
 Frc consts  --      5.7903                 6.0040                 6.0052
 IR Inten    --     13.6696                 2.4238                 2.8314

                    115                    116                    117
                      A                      A                      A
 Frequencies --   3125.7799              3143.1950              3146.4924
 Red. masses --      1.1000                 1.1083                 1.1047
 Frc consts  --      6.3325                 6.4514                 6.4437
 IR Inten    --     25.2701                17.2812                27.5745

                    118                    119                    120
                      A                      A                      A
 Frequencies --   3154.4592              3156.6196              3163.5733
 Red. masses --      1.1064                 1.1051                 1.1059
 Frc consts  --      6.4868                 6.4880                 6.5208
 IR Inten    --      2.6451                 5.7471                 9.3361

                    121                    122                    123
                      A                      A                      A
 Frequencies --   3164.4249              3174.7003              3175.7618
 Red. masses --      1.1077                 1.1013                 1.1002
 Frc consts  --      6.5350                 6.5395                 6.5378
 IR Inten    --      5.1139                 2.7346                 4.6502

                    124                    125                    126
                      A                      A                      A
 Frequencies --   3183.5748              3184.8307              3198.2592
 Red. masses --      1.1062                 1.1071                 1.1037
 Frc consts  --      6.6058                 6.6161                 6.6513
 IR Inten    --      2.4651                 2.9816                10.0557

                    127                    128                    129
                      A                      A                      A
 Frequencies --   3202.1726              3205.1904              3208.0191
 Red. masses --      1.1082                 1.1075                 1.1072
 Frc consts  --      6.6950                 6.7036                 6.7133
 IR Inten    --      4.5055                 4.5683                 4.6832

                    130                    131                    132
                      A                      A                      A
 Frequencies --   3219.6581              3250.0847              3267.6440
 Red. masses --      1.1081                 1.0942                 1.0929
 Frc consts  --      6.7676                 6.8101                 6.8752
 IR Inten    --      5.3351                 2.8562                 1.9130

 - Thermochemistry -
 -------------------
 Temperature   298.150 Kelvin.  Pressure   1.00000 Atm.
 Atom     1 has atomic number 78 and mass 194.96480

 Molecular mass:   448.18021 amu.
 Principal axes and moments of inertia in atomic units:
                           1         2         3
     Eigenvalues --  3653.933817436.211669789.21906
           X            0.99982  -0.01844  -0.00455
           Y            0.01844   0.99983  -0.00101
           Z            0.00457   0.00092   0.99999
 This molecule is an asymmetric top.
 Rotational symmetry number  1.
 Warning -- assumption of classical behavior for rotation
           may cause significant error
 Rotational temperatures (Kelvin)      0.02370     0.01165     0.00885
 Rotational constants (GHZ):           0.49392     0.24270     0.18436
 Zero-point vibrational energy    1079674.9 (Joules/Mol)
                                  258.04850 (Kcal/Mol)
 Warning -- explicit consideration of  38 degrees of freedom as
           vibrations may cause significant error
 Vibrational temperatures:     97.19   141.48   170.68   200.66   229.06
          (Kelvin)            237.12   239.18   258.55   268.12   286.47
                              313.98   330.62   338.83   347.95   356.29
                              367.34   383.32   395.19   411.72   427.03
                              448.42   461.18   475.30   483.31   493.85
                              510.19   539.50   612.39   632.61   677.87
                              718.01   755.01   778.83   782.58   820.44
                              827.84   834.56   885.95   915.45   999.54
                             1043.29  1109.72  1190.55  1244.28  1258.72
                             1264.91  1298.31  1300.47  1309.63  1324.62
                             1362.09  1406.59  1423.15  1429.20  1451.75
                             1502.21  1510.76  1513.02  1531.46  1602.07
                             1637.24  1644.51  1700.78  1703.69  1715.16
                             1733.21  1759.48  1764.60  1782.18  1816.54
                             1832.76  1842.37  1850.82  1900.83  1907.02
                             1914.75  1929.55  2001.62  2025.20  2044.24
                             2093.06  2097.61  2102.63  2109.02  2113.38
                             2125.84  2130.55  2133.62  2138.45  2140.47
                             2147.43  2157.42  2161.78  2163.32  2166.64
                             2173.51  2173.85  2179.77  2184.50  2199.57
                             2211.70  2213.96  2222.35  2368.02  2425.49
                             4369.83  4403.22  4424.11  4425.12  4438.13
                             4439.38  4443.18  4458.60  4460.55  4497.30
                             4522.36  4527.10  4538.56  4541.67  4551.68
                             4552.90  4567.69  4569.21  4580.45  4582.26
                             4601.58  4607.21  4611.55  4615.62  4632.37
                             4676.15  4701.41

 Zero-point correction=                           0.411226 (Hartree/Particle)
 Thermal correction to Energy=                    0.431909
 Thermal correction to Enthalpy=                  0.432854
 Thermal correction to Gibbs Free Energy=         0.365115
 Sum of electronic and zero-point Energies=           -907.964062
 Sum of electronic and thermal Energies=              -907.943379
 Sum of electronic and thermal Enthalpies=            -907.942435
 Sum of electronic and thermal Free Energies=         -908.010173

                     E (Thermal)             CV                S
                      KCal/Mol        Cal/Mol-Kelvin    Cal/Mol-Kelvin
 Total                  271.027             83.004            142.567
 Electronic               0.000              0.000              0.000
 Translational            0.889              2.981             44.189
 Rotational               0.889              2.981             33.941
 Vibrational            269.250             77.042             64.437
 Vibration     1          0.598              1.970              4.223
 Vibration     2          0.604              1.950              3.487
 Vibration     3          0.609              1.934              3.123
 Vibration     4          0.615              1.914              2.811
 Vibration     5          0.621              1.892              2.559
 Vibration     6          0.623              1.886              2.494
 Vibration     7          0.624              1.884              2.478
 Vibration     8          0.629              1.867              2.331
 Vibration     9          0.632              1.859              2.264
 Vibration    10          0.637              1.841              2.141
 Vibration    11          0.646              1.813              1.974
 Vibration    12          0.652              1.796              1.881
 Vibration    13          0.655              1.786              1.837
 Vibration    14          0.658              1.776              1.789
 Vibration    15          0.661              1.767              1.747
 Vibration    16          0.666              1.754              1.694
 Vibration    17          0.672              1.735              1.619
 Vibration    18          0.677              1.720              1.567
 Vibration    19          0.684              1.699              1.497
 Vibration    20          0.690              1.680              1.435
 Vibration    21          0.700              1.651              1.353
 Vibration    22          0.706              1.634              1.307
 Vibration    23          0.713              1.615              1.258
 Vibration    24          0.717              1.604              1.231
 Vibration    25          0.722              1.589              1.197
 Vibration    26          0.730              1.566              1.146
 Vibration    27          0.746              1.523              1.059
 Vibration    28          0.787              1.414              0.873
 Vibration    29          0.800              1.384              0.828
 Vibration    30          0.828              1.314              0.734
 Vibration    31          0.854              1.252              0.661
 Vibration    32          0.880              1.195              0.599
 Vibration    33          0.896              1.159              0.562
 Vibration    34          0.899              1.153              0.557
 Vibration    35          0.926              1.096              0.504
 Vibration    36          0.932              1.085              0.494
 Vibration    37          0.937              1.074              0.485
 Vibration    38          0.975              0.999              0.423

                           ! Non-Optimized Parameters !
 Normal termination of Gaussian 16 at Wed May 29 21:25:58 2024.
