 Gaussian 16, Revision C.01,
 Gaussian 16:  ES64L-G16RevC.01  3-Jul-2019

 ----------------------------------------------------------
 # wb97xd def2TZVPP SCRF=(solvent=dichloromethane) opt freq
 ----------------------------------------------------------

 -------------
 ZPtMeMe_sigma
 -------------
 Symbolic Z-matrix:
 Charge =  1 Multiplicity = 1

 SCF Done:  E(RwB97XD) =  -868.657595082     A.U. after   19 cycles
 SCF Done:  E(RwB97XD) =  -868.661484036     A.U. after   13 cycles
 SCF Done:  E(RwB97XD) =  -868.659088898     A.U. after   14 cycles
 SCF Done:  E(RwB97XD) =  -868.661453518     A.U. after   12 cycles
 SCF Done:  E(RwB97XD) =  -868.661953308     A.U. after   10 cycles
 SCF Done:  E(RwB97XD) =  -868.662174756     A.U. after   12 cycles
 SCF Done:  E(RwB97XD) =  -868.662466102     A.U. after   12 cycles
 SCF Done:  E(RwB97XD) =  -868.662605403     A.U. after   12 cycles
 SCF Done:  E(RwB97XD) =  -868.662611835     A.U. after   10 cycles
 SCF Done:  E(RwB97XD) =  -868.662646352     A.U. after   11 cycles
 SCF Done:  E(RwB97XD) =  -868.662970259     A.U. after   11 cycles
 SCF Done:  E(RwB97XD) =  -868.661880693     A.U. after   12 cycles
 SCF Done:  E(RwB97XD) =  -868.662998111     A.U. after   11 cycles
 SCF Done:  E(RwB97XD) =  -868.662999684     A.U. after   10 cycles
 SCF Done:  E(RwB97XD) =  -868.663005384     A.U. after   10 cycles
 SCF Done:  E(RwB97XD) =  -868.663006700     A.U. after   10 cycles
 SCF Done:  E(RwB97XD) =  -868.663008378     A.U. after    9 cycles
 SCF Done:  E(RwB97XD) =  -868.663009765     A.U. after    8 cycles
 SCF Done:  E(RwB97XD) =  -868.663009760     A.U. after    6 cycles
 Optimization completed.
    -- Stationary point found.
 Normal termination of Gaussian 16 at Thu May 30 20:19:22 2024.

 ----------------------------------------------------------------------
 #N Geom=AllCheck Guess=TCheck SCRF=Check GenChk RwB97XD/def2TZVPP Freq
 ----------------------------------------------------------------------

 Structure from the checkpoint file:  "ZPtMeMe_sigma.chk"
 -------------
 ZPtMeMe_sigma
 -------------
 Charge =  1 Multiplicity = 1

                         Standard orientation:
 ---------------------------------------------------------------------
 Center     Atomic      Atomic             Coordinates (Angstroms)
 Number     Number       Type             X           Y           Z
 ---------------------------------------------------------------------
      1         78           0        0.686124   -0.050928    0.031661
      2          6           0       -1.914917   -1.117363   -0.300789
      3          6           0       -1.824280    1.243811   -0.239669
      4          6           0       -3.265574   -1.110324   -0.203238
      5          6           0       -3.171871    1.335764   -0.137047
      6          6           0       -3.995638    0.140855   -0.092705
      7          1           0       -3.822270   -2.036614   -0.219823
      8          1           0       -3.654813    2.302202   -0.104927
      9          8           0       -5.227855    0.184531    0.017328
     10          7           0       -1.211551    0.039759   -0.301616
     11          6           0       -1.031877   -2.306947   -0.533488
     12          1           0       -0.861021   -2.394738   -1.606346
     13          1           0       -1.479851   -3.235585   -0.182662
     14          6           0       -0.859590    2.373542   -0.437476
     15          1           0       -0.735883    2.516147   -1.510799
     16          1           0       -1.219538    3.309607   -0.012637
     17          7           0        0.307407   -2.113612    0.115511
     18          7           0        0.495559    2.050147    0.126335
     19          6           0        3.368640    0.031529    0.405669
     20          1           0        2.418831   -0.581407    0.458651
     21          1           0        3.969958   -0.570317    1.087218
     22          1           0        3.245052    1.006134    0.865467
     23          6           0        1.304188   -2.970419   -0.562124
     24          1           0        2.252796   -2.903542   -0.034934
     25          1           0        0.968089   -4.008609   -0.554041
     26          1           0        1.432972   -2.635065   -1.587662
     27          6           0        0.211562   -2.511250    1.542363
     28          1           0       -0.020145   -3.575666    1.608060
     29          1           0        1.158883   -2.318855    2.038571
     30          1           0       -0.574834   -1.940662    2.029571
     31          6           0        1.506340    2.824997   -0.624802
     32          1           0        1.254383    3.886434   -0.595949
     33          1           0        2.484152    2.687433   -0.173785
     34          1           0        1.529206    2.484628   -1.656414
     35          6           0        0.528277    2.451117    1.554200
     36          1           0        1.480717    2.167323    1.993137
     37          1           0        0.403989    3.532344    1.632766
     38          1           0       -0.276357    1.954071    2.090329
     39          6           0        3.955614    0.074667   -0.991232
     40          1           0        4.012271   -0.923916   -1.421194
     41          1           0        3.368227    0.699491   -1.661024
     42          1           0        4.965258    0.481325   -0.949328
 ---------------------------------------------------------------------

 SCF Done:  E(RwB97XD) =  -868.663009760     A.U. after    1 cycles

 The electronic state is 1-A.
 Alpha  occ. eigenvalues --  -19.20544 -14.55248 -14.55061 -14.50854 -10.36541
 Alpha  occ. eigenvalues --  -10.36539 -10.36528 -10.36349 -10.36302 -10.34593
 Alpha  occ. eigenvalues --  -10.34534 -10.34470 -10.34466 -10.33935 -10.30111
 Alpha  occ. eigenvalues --  -10.29713 -10.29663  -4.08366  -2.33372  -2.33028
 Alpha  occ. eigenvalues --   -2.29323  -1.12486  -1.11271  -1.10238  -1.08543
 Alpha  occ. eigenvalues --   -0.94182  -0.90510  -0.89344  -0.87056  -0.85744
 Alpha  occ. eigenvalues --   -0.85677  -0.83393  -0.76718  -0.76140  -0.75703
 Alpha  occ. eigenvalues --   -0.74302  -0.69824  -0.66069  -0.63818  -0.63037
 Alpha  occ. eigenvalues --   -0.62164  -0.61678  -0.60975  -0.60100  -0.59327
 Alpha  occ. eigenvalues --   -0.58373  -0.57150  -0.55761  -0.54929  -0.53880
 Alpha  occ. eigenvalues --   -0.53059  -0.52951  -0.51952  -0.51321  -0.50936
 Alpha  occ. eigenvalues --   -0.50568  -0.50420  -0.49916  -0.49773  -0.49222
 Alpha  occ. eigenvalues --   -0.48765  -0.48088  -0.47572  -0.47346  -0.47039
 Alpha  occ. eigenvalues --   -0.45599  -0.42975  -0.39744  -0.39137  -0.38412
 Alpha  occ. eigenvalues --   -0.36533  -0.35601  -0.33153  -0.30270
 Alpha virt. eigenvalues --   -0.02114   0.02688   0.03229   0.05339   0.06715
 Alpha virt. eigenvalues --    0.09468   0.09740   0.10442   0.12176   0.12614
 Alpha virt. eigenvalues --    0.12822   0.13873   0.14138   0.14259   0.14543

 Mulliken charges:
               1
     1  Pt   0.405195
     2  C    0.088228
     3  C    0.091611
     4  C   -0.258566
     5  C   -0.269245
     6  C    0.290214
     7  H    0.111671
     8  H    0.111511
     9  O   -0.518240
    10  N   -0.201140
    11  C   -0.056247
    12  H    0.135702
    13  H    0.128183
    14  C   -0.050340
    15  H    0.132913
    16  H    0.127456
    17  N   -0.064098
    18  N   -0.072326
    19  C   -0.117251
    20  H   -0.063690
    21  H    0.124516
    22  H    0.126020
    23  C   -0.187076
    24  H    0.114212
    25  H    0.131181
    26  H    0.127620
    27  C   -0.186542
    28  H    0.120642
    29  H    0.121849
    30  H    0.135821
    31  C   -0.207872
    32  H    0.136790
    33  H    0.120958
    34  H    0.127698
    35  C   -0.192198
    36  H    0.121765
    37  H    0.119702
    38  H    0.136916
    39  C   -0.232730
    40  H    0.093170
    41  H    0.090670
    42  H    0.105346
 Sum of Mulliken charges =   1.00000

 Dipole moment (field-independent basis, Debye):
    X=             15.9010    Y=             -0.7010    Z=              0.7040  Tot=             15.9320
 Quadrupole moment (field-independent basis, Debye-Ang):
   XX=           -160.0219   YY=            -78.6627   ZZ=           -117.5460
   XY=              3.1438   XZ=              2.4869   YZ=              0.0532

  Exact polarizability:     353.876      -2.912     281.700      -3.760       0.859     196.432
 Approx polarizability:     279.212      -1.886     236.624      -3.128       0.558     189.329

                      1                      2                      3
                      A                      A                      A
 Frequencies --     51.0589                63.3783                72.2013
 Red. masses --      3.0797                 3.0842                 5.3964
 Frc consts  --      0.0047                 0.0073                 0.0166
 IR Inten    --      0.9670                 1.3246                 3.8709

                      4                      5                      6
                      A                      A                      A
 Frequencies --     80.8876               116.3416               134.0617
 Red. masses --      3.2424                 3.8894                 2.8522
 Frc consts  --      0.0125                 0.0310                 0.0302
 IR Inten    --      3.9609                 4.3933                 1.4353

                      7                      8                      9
                      A                      A                      A
 Frequencies --    158.6983               178.0623               196.8468
 Red. masses --      1.9116                 3.3449                 3.9327
 Frc consts  --      0.0284                 0.0625                 0.0898
 IR Inten    --      0.9437                 0.6717                 5.6040

                     10                     11                     12
                      A                      A                      A
 Frequencies --    208.5656               217.0678               224.6323
 Red. masses --      1.9200                 2.1619                 3.0478
 Frc consts  --      0.0492                 0.0600                 0.0906
 IR Inten    --      0.4527                 1.0551                 7.3255

                     13                     14                     15
                      A                      A                      A
 Frequencies --    232.8115               247.5263               257.6760
 Red. masses --      2.6267                 1.8114                 3.1725
 Frc consts  --      0.0839                 0.0654                 0.1241
 IR Inten    --      6.8629                 1.8971                 3.0309

                     16                     17                     18
                      A                      A                      A
 Frequencies --    272.7392               273.8986               285.0682
 Red. masses --      2.5740                 1.9042                 1.7130
 Frc consts  --      0.1128                 0.0842                 0.0820
 IR Inten    --      0.6854                 0.4729                 0.9027

                     19                     20                     21
                      A                      A                      A
 Frequencies --    289.6167               295.9918               303.3462
 Red. masses --      2.4422                 2.3160                 2.5037
 Frc consts  --      0.1207                 0.1196                 0.1357
 IR Inten    --      0.4771                 0.6827                 2.7556

                     22                     23                     24
                      A                      A                      A
 Frequencies --    311.6644               315.8845               364.4404
 Red. masses --      1.0958                 1.2808                 4.4023
 Frc consts  --      0.0627                 0.0753                 0.3445
 IR Inten    --      0.1885                 1.8388                14.1517

                     25                     26                     27
                      A                      A                      A
 Frequencies --    411.7682               417.7016               461.4863
 Red. masses --      2.3149                 2.2807                 2.8301
 Frc consts  --      0.2312                 0.2345                 0.3551
 IR Inten    --      2.1550                 0.6750                 0.3487

                     28                     29                     30
                      A                      A                      A
 Frequencies --    500.2166               501.6554               534.7914
 Red. masses --      3.4124                 3.2716                 2.9453
 Frc consts  --      0.5031                 0.4851                 0.4963
 IR Inten    --     12.2329                 9.6008                 1.6133

                     31                     32                     33
                      A                      A                      A
 Frequencies --    542.5787               570.1659               591.2181
 Red. masses --      3.6442                 2.9230                 1.1901
 Frc consts  --      0.6321                 0.5599                 0.2451
 IR Inten    --      0.1412                17.2761                33.4145

                     34                     35                     36
                      A                      A                      A
 Frequencies --    620.8395               624.5254               695.3555
 Red. masses --      4.3465                 4.4485                 5.7019
 Frc consts  --      0.9871                 1.0223                 1.6244
 IR Inten    --      8.8054                30.4170                 0.9365

                     37                     38                     39
                      A                      A                      A
 Frequencies --    729.8434               741.4064               773.1088
 Red. masses --      2.7595                 3.2350                 1.0627
 Frc consts  --      0.8660                 1.0477                 0.3742
 IR Inten    --      1.8990                29.8720                 1.1770

                     40                     41                     42
                      A                      A                      A
 Frequencies --    862.7205               866.1801               879.2132
 Red. masses --      1.5130                 1.0643                 2.5736
 Frc consts  --      0.6635                 0.4705                 1.1721
 IR Inten    --     26.9554                 7.8589                49.4150

                     43                     44                     45
                      A                      A                      A
 Frequencies --    895.9815               898.6746               931.4282
 Red. masses --      2.6120                 2.3391                 2.9060
 Frc consts  --      1.2354                 1.1130                 1.4854
 IR Inten    --     37.6895                65.3851                69.1079

                     46                     47                     48
                      A                      A                      A
 Frequencies --    993.1762               997.8540               999.9120
 Red. masses --      2.4810                 2.4142                 2.2012
 Frc consts  --      1.4419                 1.4163                 1.2967
 IR Inten    --      4.4928                24.9885                62.2495

                     49                     50                     51
                      A                      A                      A
 Frequencies --   1013.8651              1019.9138              1044.7870
 Red. masses --      2.4317                 2.5955                 1.6816
 Frc consts  --      1.4727                 1.5907                 1.0815
 IR Inten    --     36.3660                 5.2015                 8.0665

                     52                     53                     54
                      A                      A                      A
 Frequencies --   1049.4663              1061.6465              1131.2487
 Red. masses --      1.6749                 3.3089                 3.3992
 Frc consts  --      1.0869                 2.1973                 2.5629
 IR Inten    --     15.4274                15.7069                54.4816

                     55                     56                     57
                      A                      A                      A
 Frequencies --   1133.2994              1139.3149              1161.8247
 Red. masses --      1.3804                 1.3167                 1.5394
 Frc consts  --      1.0446                 1.0070                 1.2243
 IR Inten    --     10.1605                 9.0722                15.7074

                     58                     59                     60
                      A                      A                      A
 Frequencies --   1178.5792              1185.3646              1215.3573
 Red. masses --      1.5758                 1.5108                 1.5019
 Frc consts  --      1.2897                 1.2507                 1.3071
 IR Inten    --      0.5140                 3.2902                 0.0768

                     61                     62                     63
                      A                      A                      A
 Frequencies --   1220.6445              1227.3206              1233.9027
 Red. masses --      1.7615                 1.4142                 1.9474
 Frc consts  --      1.5464                 1.2551                 1.7469
 IR Inten    --      4.5665                 1.2992                 9.1955

                     64                     65                     66
                      A                      A                      A
 Frequencies --   1240.1925              1267.7097              1278.6030
 Red. masses --      1.7406                 4.1245                 2.1810
 Frc consts  --      1.5774                 3.9054                 2.1008
 IR Inten    --     11.8103                 0.5015                 3.0323

                     67                     68                     69
                      A                      A                      A
 Frequencies --   1284.9058              1322.4679              1327.1431
 Red. masses --      2.0176                 1.4298                 1.4627
 Frc consts  --      1.9626                 1.4733                 1.5179
 IR Inten    --      2.1006                 4.6589                 8.3701

                     70                     71                     72
                      A                      A                      A
 Frequencies --   1357.1633              1394.5550              1404.5643
 Red. masses --      1.2545                 1.4063                 1.4262
 Frc consts  --      1.3614                 1.6114                 1.6578
 IR Inten    --     28.7530                 2.0553                 6.8233

                     73                     74                     75
                      A                      A                      A
 Frequencies --   1428.4237              1431.0271              1453.7505
 Red. masses --      4.0224                 1.2350                 1.1442
 Frc consts  --      4.8356                 1.4901                 1.4247
 IR Inten    --    174.2101                 8.3348                 8.8161

                     76                     77                     78
                      A                      A                      A
 Frequencies --   1457.5949              1465.5810              1475.6324
 Red. masses --      1.1464                 1.0943                 1.1111
 Frc consts  --      1.4350                 1.3849                 1.4254
 IR Inten    --      7.2148                 8.3919                12.9047

                     79                     80                     81
                      A                      A                      A
 Frequencies --   1477.7687              1485.2266              1486.7451
 Red. masses --      1.1281                 1.0473                 1.0455
 Frc consts  --      1.4514                 1.3611                 1.3616
 IR Inten    --      4.6254                 1.1275                 1.5204

                     82                     83                     84
                      A                      A                      A
 Frequencies --   1489.4495              1490.1162              1495.5100
 Red. masses --      1.0984                 1.0398                 1.1002
 Frc consts  --      1.4357                 1.3603                 1.4498
 IR Inten    --      1.5262                 8.3269                 3.8726

                     85                     86                     87
                      A                      A                      A
 Frequencies --   1499.0970              1503.4426              1504.7405
 Red. masses --      1.0485                 1.0666                 1.0667
 Frc consts  --      1.3882                 1.4205                 1.4230
 IR Inten    --      2.5011                29.2923                30.4243

                     88                     89                     90
                      A                      A                      A
 Frequencies --   1510.7087              1512.3801              1513.2390
 Red. masses --      1.0554                 1.0547                 1.0485
 Frc consts  --      1.4191                 1.4213                 1.4146
 IR Inten    --     63.6212                35.9537                20.2509

                     91                     92                     93
                      A                      A                      A
 Frequencies --   1517.0526              1539.9413              1609.1939
 Red. masses --      1.0462                 7.7619                 1.2247
 Frc consts  --      1.4187                10.8450                 1.8686
 IR Inten    --     27.5344               174.5033                25.8293

                     94                     95                     96
                      A                      A                      A
 Frequencies --   1611.8670              1651.8342              1690.4030
 Red. masses --      3.6725                10.2246                 7.7676
 Frc consts  --      5.6217                16.4373                13.0773
 IR Inten    --      1.6292              1008.7358               841.8950

                     97                     98                     99
                      A                      A                      A
 Frequencies --   2706.2173              3062.9844              3064.2250
 Red. masses --      1.0596                 1.0368                 1.0373
 Frc consts  --      4.5720                 5.7311                 5.7384
 IR Inten    --    464.9026                11.9326                50.3965

                    100                    101                    102
                      A                      A                      A
 Frequencies --   3066.1486              3068.5874              3072.8769
 Red. masses --      1.0368                 1.0393                 1.0359
 Frc consts  --      5.7428                 5.7661                 5.7634
 IR Inten    --     18.7154                30.0430                22.7692

                    103                    104                    105
                      A                      A                      A
 Frequencies --   3090.9972              3091.5918              3105.8690
 Red. masses --      1.0600                 1.0600                 1.0681
 Frc consts  --      5.9668                 5.9693                 6.0703
 IR Inten    --     12.0576                 8.7787                 6.0798

                    106                    107                    108
                      A                      A                      A
 Frequencies --   3145.0646              3147.1572              3148.2178
 Red. masses --      1.1065                 1.1068                 1.1031
 Frc consts  --      6.4488                 6.4586                 6.4416
 IR Inten    --      9.5154                 8.3256                10.7558

                    109                    110                    111
                      A                      A                      A
 Frequencies --   3152.5540              3153.1208              3154.0292
 Red. masses --      1.1018                 1.1016                 1.0998
 Frc consts  --      6.4517                 6.4528                 6.4460
 IR Inten    --     21.0635                16.0425                10.7260

                    112                    113                    114
                      A                      A                      A
 Frequencies --   3154.7625              3157.5913              3180.7310
 Red. masses --      1.1011                 1.0991                 1.1070
 Frc consts  --      6.4567                 6.4563                 6.5987
 IR Inten    --     11.2249                 6.8027                 7.9205

                    115                    116                    117
                      A                      A                      A
 Frequencies --   3184.2524              3184.3909              3185.9556
 Red. masses --      1.1018                 1.1070                 1.1027
 Frc consts  --      6.5823                 6.6136                 6.5947
 IR Inten    --     11.3346                 4.5882                12.2026

                    118                    119                    120
                      A                      A                      A
 Frequencies --   3195.7714              3222.9072              3227.7842
 Red. masses --      1.1043                 1.0930                 1.0928
 Frc consts  --      6.6448                 6.6891                 6.7079
 IR Inten    --     13.1457                 3.9022                 3.3826

 - Thermochemistry -
 -------------------
 Temperature   298.150 Kelvin.  Pressure   1.00000 Atm.
 Atom     1 has atomic number 78 and mass 194.96480

 Molecular mass:   433.15674 amu.
 Principal axes and moments of inertia in atomic units:
                           1         2         3
     Eigenvalues --  3408.458066238.541988712.38937
           X            0.99996   0.00759  -0.00470
           Y           -0.00759   0.99997  -0.00017
           Z            0.00470   0.00021   0.99999
 This molecule is an asymmetric top.
 Rotational symmetry number  1.
 Warning -- assumption of classical behavior for rotation
           may cause significant error
 Rotational temperatures (Kelvin)      0.02541     0.01388     0.00994
 Rotational constants (GHZ):           0.52949     0.28929     0.20715
 Zero-point vibrational energy     970845.1 (Joules/Mol)
                                  232.03754 (Kcal/Mol)
 Warning -- explicit consideration of  33 degrees of freedom as
           vibrations may cause significant error
 Vibrational temperatures:     73.46    91.19   103.88   116.38   167.39
          (Kelvin)            192.88   228.33   256.19   283.22   300.08
                              312.31   323.20   334.96   356.14   370.74
                              392.41   394.08   410.15   416.69   425.87
                              436.45   448.42   454.49   524.35   592.44
                              600.98   663.98   719.70   721.77   769.45
                              780.65   820.34   850.63   893.25   898.55
                             1000.46  1050.08  1066.72  1112.33  1241.26
                             1246.24  1264.99  1289.12  1292.99  1340.12
                             1428.96  1435.69  1438.65  1458.73  1467.43
                             1503.22  1509.95  1527.47  1627.61  1630.57
                             1639.22  1671.61  1695.71  1705.48  1748.63
                             1756.24  1765.84  1775.31  1784.36  1823.95
                             1839.62  1848.69  1902.74  1909.46  1952.66
                             2006.45  2020.85  2055.18  2058.93  2091.62
                             2097.15  2108.64  2123.11  2126.18  2136.91
                             2139.09  2142.99  2143.94  2151.71  2156.87
                             2163.12  2164.99  2173.57  2175.98  2177.21
                             2182.70  2215.63  2315.27  2319.12  2376.62
                             2432.11  3893.64  4406.95  4408.74  4411.50
                             4415.01  4421.18  4447.26  4448.11  4468.65
                             4525.05  4528.06  4529.58  4535.82  4536.64
                             4537.94  4539.00  4543.07  4576.36  4581.43
                             4581.63  4583.88  4598.00  4637.04  4644.06

 Zero-point correction=                           0.369775 (Hartree/Particle)
 Thermal correction to Energy=                    0.389556
 Thermal correction to Enthalpy=                  0.390500
 Thermal correction to Gibbs Free Energy=         0.322888
 Sum of electronic and zero-point Energies=           -868.293234
 Sum of electronic and thermal Energies=              -868.273454
 Sum of electronic and thermal Enthalpies=            -868.272510
 Sum of electronic and thermal Free Energies=         -868.340121

                     E (Thermal)             CV                S
                      KCal/Mol        Cal/Mol-Kelvin    Cal/Mol-Kelvin
 Total                  244.450             76.427            142.301
 Electronic               0.000              0.000              0.000
 Translational            0.889              2.981             44.088
 Rotational               0.889              2.981             33.582
 Vibrational            242.673             70.466             64.631
 Vibration     1          0.595              1.977              4.776
 Vibration     2          0.597              1.972              4.349
 Vibration     3          0.598              1.967              4.092
 Vibration     4          0.600              1.962              3.869
 Vibration     5          0.608              1.936              3.160
 Vibration     6          0.613              1.919              2.887
 Vibration     7          0.621              1.893              2.565
 Vibration     8          0.628              1.869              2.349
 Vibration     9          0.636              1.844              2.162
 Vibration    10          0.642              1.828              2.056
 Vibration    11          0.646              1.815              1.983
 Vibration    12          0.649              1.804              1.921
 Vibration    13          0.654              1.791              1.857
 Vibration    14          0.661              1.767              1.748
 Vibration    15          0.667              1.750              1.677
 Vibration    16          0.676              1.724              1.579
 Vibration    17          0.676              1.722              1.571
 Vibration    18          0.683              1.701              1.503
 Vibration    19          0.686              1.693              1.476
 Vibration    20          0.690              1.681              1.439
 Vibration    21          0.695              1.667              1.398
 Vibration    22          0.700              1.651              1.353
 Vibration    23          0.703              1.643              1.331
 Vibration    24          0.738              1.545              1.103
 Vibration    25          0.776              1.445              0.920
 Vibration    26          0.781              1.432              0.900
 Vibration    27          0.819              1.335              0.762
 Vibration    28          0.856              1.250              0.658
 Vibration    29          0.857              1.246              0.654
 Vibration    30          0.890              1.173              0.577
 Vibration    31          0.898              1.156              0.560
 Vibration    32          0.926              1.096              0.504
 Vibration    33          0.949              1.050              0.465

                           ! Non-Optimized Parameters !
 Normal termination of Gaussian 16 at Thu May 30 22:06:49 2024.
