 Gaussian 16, Revision C.01,
 Gaussian 16:  ES64L-G16RevC.01  3-Jul-2019

 ------------------------------------------------------------------
 # wb97xd def2TZVPP SCRF=(solvent=dichloromethane) opt=modredundant
 ------------------------------------------------------------------

 -----------
 scan_YPtMeH
 -----------
 Symbolic Z-matrix:
 Charge =  1 Multiplicity = 1

 SCF Done:  E(RwB97XD) =  -738.015633669     A.U. after   17 cycles
 SCF Done:  E(RwB97XD) =  -738.037500754     A.U. after   12 cycles
 SCF Done:  E(RwB97XD) =  -738.051313960     A.U. after   14 cycles
 SCF Done:  E(RwB97XD) =  -738.057290542     A.U. after   14 cycles
 SCF Done:  E(RwB97XD) =  -738.059081564     A.U. after   12 cycles
 SCF Done:  E(RwB97XD) =  -738.059476727     A.U. after   12 cycles
 SCF Done:  E(RwB97XD) =  -738.059581915     A.U. after   10 cycles
 SCF Done:  E(RwB97XD) =  -738.058702681     A.U. after   12 cycles
 SCF Done:  E(RwB97XD) =  -738.059125683     A.U. after   12 cycles
 SCF Done:  E(RwB97XD) =  -738.059536855     A.U. after   12 cycles
 Optimization completed.
    -- Stationary point found.
 SCF Done:  E(RwB97XD) =  -738.069245445     A.U. after   14 cycles
 SCF Done:  E(RwB97XD) =  -738.069734591     A.U. after   11 cycles
 SCF Done:  E(RwB97XD) =  -738.069885347     A.U. after   11 cycles
 SCF Done:  E(RwB97XD) =  -738.069853357     A.U. after   12 cycles
 SCF Done:  E(RwB97XD) =  -738.069923378     A.U. after   11 cycles
 SCF Done:  E(RwB97XD) =  -738.069941756     A.U. after   11 cycles
 SCF Done:  E(RwB97XD) =  -738.069945171     A.U. after   10 cycles
 SCF Done:  E(RwB97XD) =  -738.069950883     A.U. after    9 cycles
 SCF Done:  E(RwB97XD) =  -738.069950857     A.U. after    9 cycles
 SCF Done:  E(RwB97XD) =  -738.069951404     A.U. after    8 cycles
 Optimization completed.
    -- Stationary point found.

                         Standard orientation:
 ---------------------------------------------------------------------
 Center     Atomic      Atomic             Coordinates (Angstroms)
 Number     Number       Type             X           Y           Z
 ---------------------------------------------------------------------
      1          6           0        1.920981    1.215599   -0.099382
      2          6           0        1.920950   -1.215629   -0.099380
      3          6           0        3.305199    1.213950   -0.003181
      4          6           0        3.305166   -1.214012   -0.003176
      5          6           0        3.983633   -0.000039    0.061166
      6          1           0        3.859766    2.143692    0.012780
      7          1           0        3.859713   -2.143767    0.012790
      8          6           0        1.037363    2.405275   -0.330573
      9          1           0        1.032287    2.633901   -1.396311
     10          1           0        1.361317    3.303943    0.196618
     11          6           0        1.037307   -2.405285   -0.330581
     12          1           0        1.032230   -2.633889   -1.396323
     13          1           0        1.361254   -3.303966    0.196592
     14          7           0       -0.386849    2.093572    0.057615
     15          7           0       -0.386899   -2.093574    0.057614
     16          6           0       -3.169978    0.000031   -0.004362
     17          1           0       -2.533451    0.000055    0.897223
     18          1           0       -3.785424    0.893897    0.034992
     19          1           0       -3.785496   -0.893780    0.035170
     20          6           0       -1.299300    2.899155   -0.778679
     21          1           0       -2.322134    2.750921   -0.442829
     22          1           0       -1.049300    3.958792   -0.692612
     23          1           0       -1.210413    2.587524   -1.815995
     24          6           0       -0.580633    2.472401    1.479132
     25          1           0       -0.439747    3.549350    1.594106
     26          1           0       -1.586797    2.209784    1.796099
     27          1           0        0.141151    1.944994    2.097044
     28          6           0       -1.299342   -2.899204   -0.778650
     29          1           0       -1.049327   -3.958833   -0.692533
     30          1           0       -2.322181   -2.750966   -0.442819
     31          1           0       -1.210446   -2.587618   -1.815980
     32          6           0       -0.580661   -2.472365    1.479140
     33          1           0       -1.586821   -2.209741    1.796114
     34          1           0       -0.439766   -3.549308    1.594148
     35          1           0        0.141123   -1.944932    2.097031
     36          1           0       -2.637128   -0.000116   -1.005631
     37          1           0        5.061996   -0.000055    0.145112
     38          6           0        1.257843   -0.000004   -0.109378
     39         78           0       -0.660350    0.000011   -0.083384
 ---------------------------------------------------------------------

 The electronic state is 1-A.
 Alpha  occ. eigenvalues --  -14.53476 -14.53475 -10.34708 -10.34708 -10.33565
 Alpha  occ. eigenvalues --  -10.33565 -10.33536 -10.33536 -10.31688 -10.31202
 Alpha  occ. eigenvalues --  -10.31196 -10.30945 -10.30340 -10.30335 -10.30017
 Alpha  occ. eigenvalues --   -4.05421  -2.30200  -2.29949  -2.27012  -1.09053
 Alpha  occ. eigenvalues --   -1.08574  -0.98452  -0.90884  -0.88317  -0.84793
 Alpha  occ. eigenvalues --   -0.84611  -0.84542  -0.81953  -0.81904  -0.75422
 Alpha  occ. eigenvalues --   -0.73956  -0.70186  -0.69899  -0.64142  -0.61671
 Alpha  occ. eigenvalues --   -0.60870  -0.60558  -0.59924  -0.59023  -0.58671
 Alpha  occ. eigenvalues --   -0.55950  -0.55403  -0.54867  -0.53333  -0.53030
 Alpha  occ. eigenvalues --   -0.52728  -0.52125  -0.51058  -0.51045  -0.50359
 Alpha  occ. eigenvalues --   -0.49574  -0.48830  -0.48679  -0.48596  -0.47706
 Alpha  occ. eigenvalues --   -0.47113  -0.45948  -0.44353  -0.41950  -0.41317
 Alpha  occ. eigenvalues --   -0.39749  -0.37366  -0.36130  -0.33960  -0.33631
 Alpha  occ. eigenvalues --   -0.31135
 Alpha virt. eigenvalues --    0.02426   0.03595   0.03826   0.07134   0.08638
 Alpha virt. eigenvalues --    0.10259   0.10306   0.12439   0.13074   0.13462
 Alpha virt. eigenvalues --    0.13551   0.13802   0.14445   0.15058   0.15140

 Mulliken charges:
               1
     1  C    0.091067
     2  C    0.091059
     3  C   -0.262779
     4  C   -0.262777
     5  C   -0.060039
     6  H    0.125817
     7  H    0.125816
     8  C   -0.050482
     9  H    0.116350
    10  H    0.116197
    11  C   -0.050485
    12  H    0.116351
    13  H    0.116197
    14  N   -0.065290
    15  N   -0.065296
    16  C   -0.349119
    17  H    0.091837
    18  H    0.122912
    19  H    0.122916
    20  C   -0.190650
    21  H    0.111145
    22  H    0.124538
    23  H    0.121786
    24  C   -0.210379
    25  H    0.114304
    26  H    0.116159
    27  H    0.135241
    28  C   -0.190645
    29  H    0.124537
    30  H    0.111145
    31  H    0.121784
    32  C   -0.210383
    33  H    0.116160
    34  H    0.114304
    35  H    0.135241
    36  H    0.118874
    37  H    0.138588
    38  C   -0.272796
    39  Pt   0.300793
 Sum of Mulliken charges =   1.00000

 Dipole moment (field-independent basis, Debye):
    X=             -4.4124    Y=              0.0000    Z=              0.4809  Tot=              4.4386
 Quadrupole moment (field-independent basis, Debye-Ang):
   XX=            -93.4085   YY=            -74.3586   ZZ=           -109.9450
   XY=              0.0003   XZ=             -0.3397   YZ=              0.0001

 Normal termination of Gaussian 16 at Mon May 20 20:14:16 2024.
