 Gaussian 16, Revision C.01,
 Gaussian 16:  ES64L-G16RevC.01  3-Jul-2019

 ------------------------------------------------------------------
 # wb97xd def2TZVPP SCRF=(solvent=dichloromethane) opt=modredundant
 ------------------------------------------------------------------

 -----------
 scan_YIrMeH
 -----------
 Symbolic Z-matrix:
 Charge =  0 Multiplicity = 1

 SCF Done:  E(RwB97XD) =  -723.159310784     A.U. after   17 cycles
 SCF Done:  E(RwB97XD) =  -723.164512489     A.U. after   13 cycles
 SCF Done:  E(RwB97XD) =  -723.164796085     A.U. after   13 cycles
 SCF Done:  E(RwB97XD) =  -723.164897550     A.U. after   13 cycles
 SCF Done:  E(RwB97XD) =  -723.164909075     A.U. after   11 cycles
 SCF Done:  E(RwB97XD) =  -723.164911130     A.U. after   10 cycles
 SCF Done:  E(RwB97XD) =  -723.164911365     A.U. after    9 cycles
 Optimization completed.
    -- Stationary point found.
 SCF Done:  E(RwB97XD) =  -723.164350591     A.U. after   15 cycles
 SCF Done:  E(RwB97XD) =  -723.165157135     A.U. after   14 cycles
 SCF Done:  E(RwB97XD) =  -723.165345346     A.U. after   13 cycles
 Optimization completed.
    -- Stationary point found.
 SCF Done:  E(RwB97XD) =  -723.183793579     A.U. after   13 cycles
 SCF Done:  E(RwB97XD) =  -723.183828506     A.U. after   13 cycles
 SCF Done:  E(RwB97XD) =  -723.183840299     A.U. after   11 cycles
 SCF Done:  E(RwB97XD) =  -723.183846320     A.U. after   10 cycles
 SCF Done:  E(RwB97XD) =  -723.183849638     A.U. after   11 cycles
 SCF Done:  E(RwB97XD) =  -723.183850705     A.U. after    9 cycles
 SCF Done:  E(RwB97XD) =  -723.183850358     A.U. after   10 cycles
 SCF Done:  E(RwB97XD) =  -723.183851406     A.U. after    9 cycles
 SCF Done:  E(RwB97XD) =  -723.183851455     A.U. after    9 cycles
 SCF Done:  E(RwB97XD) =  -723.183851484     A.U. after    7 cycles
 Optimization completed.
    -- Stationary point found.

                         Standard orientation:
 ---------------------------------------------------------------------
 Center     Atomic      Atomic             Coordinates (Angstroms)
 Number     Number       Type             X           Y           Z
 ---------------------------------------------------------------------
      1          6           0       -1.921998   -1.210321   -0.108751
      2          6           0       -1.921266    1.211434   -0.108689
      3          6           0       -3.303437   -1.211329    0.003351
      4          6           0       -3.302707    1.213255    0.003417
      5          6           0       -3.990486    0.001169    0.080252
      6          1           0       -3.857970   -2.143453    0.020421
      7          1           0       -3.856684    2.145709    0.020526
      8          6           0       -1.043076   -2.401552   -0.369992
      9          1           0       -1.015130   -2.583244   -1.445702
     10          1           0       -1.392188   -3.322474    0.106788
     11          6           0       -1.041648    2.402171   -0.369885
     12          1           0       -1.013669    2.583945   -1.445581
     13          1           0       -1.390191    3.323257    0.106994
     14          7           0        0.375691   -2.125502    0.051764
     15          7           0        0.376975    2.125274    0.051748
     16          6           0        3.217259   -0.000696    0.026293
     17          1           0        2.573839   -0.001158    0.927464
     18          1           0        3.834308   -0.895455    0.040416
     19          1           0        3.834525    0.893899    0.041561
     20          6           0        1.282078   -2.953674   -0.759107
     21          1           0        2.303185   -2.812130   -0.411286
     22          1           0        1.023334   -4.014924   -0.674903
     23          1           0        1.217080   -2.645752   -1.799753
     24          6           0        0.522042   -2.525969    1.466527
     25          1           0        0.350842   -3.602880    1.574814
     26          1           0        1.524625   -2.287347    1.813672
     27          1           0       -0.199114   -1.984260    2.072981
     28          6           0        1.283791    2.952912   -0.759183
     29          1           0        1.025699    4.014318   -0.674927
     30          1           0        2.304843    2.810741   -0.411463
     31          1           0        1.218515    2.645066   -1.799835
     32          6           0        0.523685    2.525603    1.466510
     33          1           0        1.526159    2.286373    1.813551
     34          1           0        0.353126    3.602612    1.574857
     35          1           0       -0.197737    1.984292    2.073006
     36          1           0        2.617258    0.000027   -0.922230
     37         77           0        0.682095   -0.000223   -0.080875
     38          1           0       -5.068326    0.001491    0.178561
     39          6           0       -1.221961    0.000348   -0.116931
 ---------------------------------------------------------------------

 The electronic state is 1-A.
 Alpha  occ. eigenvalues --  -14.48670 -14.48670 -10.31244 -10.31244 -10.30672
 Alpha  occ. eigenvalues --  -10.30672 -10.30509 -10.30509 -10.27912 -10.27175
 Alpha  occ. eigenvalues --  -10.27174 -10.26875 -10.26875 -10.26542 -10.25174
 Alpha  occ. eigenvalues --   -3.70533  -2.04722  -2.04418  -2.01870  -1.05081
 Alpha  occ. eigenvalues --   -1.04704  -0.94285  -0.87004  -0.84608  -0.81394
 Alpha  occ. eigenvalues --   -0.81393  -0.80901  -0.78534  -0.77967  -0.71731
 Alpha  occ. eigenvalues --   -0.70673  -0.66222  -0.66049  -0.60023  -0.58065
 Alpha  occ. eigenvalues --   -0.57421  -0.57190  -0.56561  -0.55389  -0.55086
 Alpha  occ. eigenvalues --   -0.52558  -0.51179  -0.50738  -0.49977  -0.49563
 Alpha  occ. eigenvalues --   -0.49324  -0.48801  -0.47969  -0.47503  -0.46900
 Alpha  occ. eigenvalues --   -0.46349  -0.45689  -0.45514  -0.45162  -0.43759
 Alpha  occ. eigenvalues --   -0.42326  -0.41339  -0.40040  -0.36198  -0.35933
 Alpha  occ. eigenvalues --   -0.33010  -0.30864  -0.25899  -0.24405  -0.23382
 Alpha  occ. eigenvalues --   -0.22163
 Alpha virt. eigenvalues --    0.05846   0.06919   0.09709   0.11153   0.11965
 Alpha virt. eigenvalues --    0.12018   0.12305   0.14566   0.15459   0.15842
 Alpha virt. eigenvalues --    0.15996   0.16064   0.16708   0.16958   0.17108

 Mulliken charges:
               1
     1  C    0.059985
     2  C    0.060045
     3  C   -0.283748
     4  C   -0.283748
     5  C   -0.113118
     6  H    0.110882
     7  H    0.110882
     8  C   -0.070162
     9  H    0.100304
    10  H    0.098620
    11  C   -0.070181
    12  H    0.100303
    13  H    0.098620
    14  N   -0.038524
    15  N   -0.038524
    16  C   -0.346007
    17  H    0.085553
    18  H    0.105983
    19  H    0.105986
    20  C   -0.186928
    21  H    0.100296
    22  H    0.106188
    23  H    0.108016
    24  C   -0.211043
    25  H    0.097170
    26  H    0.105428
    27  H    0.122505
    28  C   -0.186962
    29  H    0.106192
    30  H    0.100311
    31  H    0.108022
    32  C   -0.211045
    33  H    0.105426
    34  H    0.097171
    35  H    0.122504
    36  H    0.091361
    37  Ir  -0.274313
    38  H    0.124888
    39  C   -0.218339
 Sum of Mulliken charges =  -0.00000

 Dipole moment (field-independent basis, Debye):
    X=              4.3010    Y=             -0.0011    Z=              1.0159  Tot=              4.4194
 Quadrupole moment (field-independent basis, Debye-Ang):
   XX=           -117.9006   YY=            -93.1093   ZZ=           -119.9446
   XY=              0.0079   XZ=              0.9157   YZ=             -0.0005

 Normal termination of Gaussian 16 at Wed Mar 13 18:49:30 2024.
