 Gaussian 16, Revision C.01,
 Gaussian 16:  ES64L-G16RevC.01  3-Jul-2019

 ------------------------------------------------------------------
 # wb97xd def2TZVPP SCRF=(solvent=dichloromethane) opt=modredundant
 ------------------------------------------------------------------

 -----------
 scan_YPtMeH
 -----------
 Symbolic Z-matrix:
 Charge =  1 Multiplicity = 1

 SCF Done:  E(RwB97XD) =  -738.006477401     A.U. after   18 cycles
 SCF Done:  E(RwB97XD) =  -738.012507666     A.U. after   13 cycles
 SCF Done:  E(RwB97XD) =  -738.013271368     A.U. after   13 cycles
 SCF Done:  E(RwB97XD) =  -738.013256545     A.U. after   12 cycles
 SCF Done:  E(RwB97XD) =  -738.012928207     A.U. after   12 cycles
 SCF Done:  E(RwB97XD) =  -738.013468083     A.U. after   12 cycles
 SCF Done:  E(RwB97XD) =  -738.013476068     A.U. after   11 cycles
 SCF Done:  E(RwB97XD) =  -738.013493074     A.U. after   10 cycles
 SCF Done:  E(RwB97XD) =  -738.013492965     A.U. after    8 cycles
 Optimization completed.
    -- Stationary point found.
 SCF Done:  E(RwB97XD) =  -738.013208508     A.U. after   13 cycles
 Optimization completed.
 SCF Done:  E(RwB97XD) =  -738.013571010     A.U. after    7 cycles
    -- Stationary point found.
 SCF Done:  E(RwB97XD) =  -738.013141246     A.U. after   13 cycles
 SCF Done:  E(RwB97XD) =  -738.013499323     A.U. after   13 cycles
 SCF Done:  E(RwB97XD) =  -738.013525739     A.U. after   11 cycles
 SCF Done:  E(RwB97XD) =  -738.013538429     A.U. after   11 cycles
 SCF Done:  E(RwB97XD) =  -738.013541472     A.U. after   10 cycles
 SCF Done:  E(RwB97XD) =  -738.013543801     A.U. after   10 cycles
 SCF Done:  E(RwB97XD) =  -738.013544779     A.U. after   10 cycles
 SCF Done:  E(RwB97XD) =  -738.013545420     A.U. after   10 cycles
 SCF Done:  E(RwB97XD) =  -738.013545692     A.U. after   10 cycles
 Optimization completed.
    -- Stationary point found.

                         Standard orientation:
 ---------------------------------------------------------------------
 Center     Atomic      Atomic             Coordinates (Angstroms)
 Number     Number       Type             X           Y           Z
 ---------------------------------------------------------------------
      1          6           0       -1.922302   -1.236043   -0.117196
      2          6           0       -1.953099    1.194764   -0.089137
      3          6           0       -3.303542   -1.258964    0.017286
      4          6           0       -3.334836    1.179086    0.046166
      5          6           0       -3.990702   -0.049196    0.107703
      6          1           0       -3.852010   -2.192018    0.046732
      7          1           0       -3.906857    2.096966    0.097094
      8          6           0       -1.007298   -2.405468   -0.355893
      9          1           0       -0.987240   -2.621805   -1.423862
     10          1           0       -1.307949   -3.318559    0.159110
     11          6           0       -1.072272    2.393005   -0.307622
     12          1           0       -1.088358    2.648357   -1.366965
     13          1           0       -1.381351    3.279145    0.247549
     14          7           0        0.420341   -2.079491    0.044292
     15          7           0        0.376156    2.093561    0.041308
     16          6           0        2.841296   -0.000868    0.146080
     17          1           0        3.078418   -0.513908    1.085276
     18          1           0        3.379184   -0.526154   -0.646068
     19          1           0        3.275083    0.999151    0.213416
     20          6           0        1.348971   -2.891947   -0.770133
     21          1           0        2.365811   -2.718754   -0.430729
     22          1           0        1.102695   -3.949325   -0.660964
     23          1           0        1.260758   -2.604147   -1.813874
     24          6           0        0.606917   -2.432772    1.475742
     25          1           0        0.449777   -3.503545    1.608504
     26          1           0        1.615766   -2.176201    1.786301
     27          1           0       -0.117013   -1.891221    2.081601
     28          6           0        1.249644    2.929523   -0.810166
     29          1           0        0.975144    3.978944   -0.693239
     30          1           0        2.283895    2.792203   -0.511623
     31          1           0        1.129525    2.635712   -1.848911
     32          6           0        0.612966    2.449247    1.464230
     33          1           0        1.634703    2.196548    1.735231
     34          1           0        0.455309    3.519322    1.603734
     35          1           0       -0.084631    1.903227    2.096624
     36          1           0       -5.066821   -0.064292    0.218143
     37          6           0       -1.281012   -0.011232   -0.147986
     38         78           0        0.709978    0.009715   -0.084559
     39          1           0        1.064024    0.019263   -1.541090
 ---------------------------------------------------------------------

 The electronic state is 1-A.
 Alpha  occ. eigenvalues --  -14.54937 -14.54920 -10.35226 -10.35217 -10.34316
 Alpha  occ. eigenvalues --  -10.34309 -10.33819 -10.33814 -10.31446 -10.31444
 Alpha  occ. eigenvalues --  -10.30556 -10.30545 -10.30400 -10.29073 -10.26205
 Alpha  occ. eigenvalues --   -4.11945  -2.35645  -2.35630  -2.34408  -1.09809
 Alpha  occ. eigenvalues --   -1.09307  -0.98490  -0.91088  -0.88516  -0.85289
 Alpha  occ. eigenvalues --   -0.85250  -0.82298  -0.82202  -0.77048  -0.76003
 Alpha  occ. eigenvalues --   -0.74530  -0.70358  -0.70098  -0.64801  -0.62219
 Alpha  occ. eigenvalues --   -0.61330  -0.61097  -0.60508  -0.59692  -0.59050
 Alpha  occ. eigenvalues --   -0.56269  -0.54720  -0.53808  -0.53663  -0.53445
 Alpha  occ. eigenvalues --   -0.51923  -0.51471  -0.51132  -0.50194  -0.49722
 Alpha  occ. eigenvalues --   -0.49658  -0.49413  -0.49300  -0.48902  -0.47904
 Alpha  occ. eigenvalues --   -0.47485  -0.45967  -0.45098  -0.44472  -0.43052
 Alpha  occ. eigenvalues --   -0.42135  -0.42015  -0.37898  -0.34291  -0.33157
 Alpha  occ. eigenvalues --   -0.32238
 Alpha virt. eigenvalues --   -0.03452   0.02275   0.03345   0.05338   0.08013
 Alpha virt. eigenvalues --    0.10282   0.10818   0.12102   0.12944   0.13392
 Alpha virt. eigenvalues --    0.13450   0.14145   0.14473   0.14669   0.14740

 Mulliken charges:
               1
     1  C    0.085313
     2  C    0.055272
     3  C   -0.247816
     4  C   -0.251374
     5  C   -0.051838
     6  H    0.127056
     7  H    0.127246
     8  C   -0.055561
     9  H    0.119563
    10  H    0.121323
    11  C   -0.041433
    12  H    0.118601
    13  H    0.121142
    14  N   -0.017996
    15  N   -0.021663
    16  C   -0.669372
    17  H    0.109261
    18  H    0.099767
    19  H    0.087908
    20  C   -0.186911
    21  H    0.120941
    22  H    0.127439
    23  H    0.117905
    24  C   -0.222870
    25  H    0.118617
    26  H    0.132984
    27  H    0.132998
    28  C   -0.187919
    29  H    0.127573
    30  H    0.120643
    31  H    0.116240
    32  C   -0.220945
    33  H    0.132814
    34  H    0.117962
    35  H    0.133429
    36  H    0.139484
    37  C   -0.414738
    38  Pt   0.763681
    39  H    0.015274
 Sum of Mulliken charges =   1.00000

 Dipole moment (field-independent basis, Debye):
    X=              0.3860    Y=              0.0223    Z=              0.8878  Tot=              0.9684
 Quadrupole moment (field-independent basis, Debye-Ang):
   XX=           -108.6308   YY=            -71.2180   ZZ=           -106.7285
   XY=             -0.3993   XZ=             -0.4684   YZ=              0.0363

 Normal termination of Gaussian 16 at Mon May  6 21:36:42 2024.
